 Entering Gaussian System, Link 0=g16
 Input=run.inp
 Output=run.out
 Initial command:
 /gpfs/fs1/soft/bebop/software/custom-built/gaussian/16-c.02/g16/l1.exe "/scratch/Gau-1826414.inp" -scrdir="/scratch/"
 Default CPUs for threads: 0-35
 Default is to use a total of  36 processors:
                               36 via shared-memory
                                1 via Linda
 Entering Link 1 = /gpfs/fs1/soft/bebop/software/custom-built/gaussian/16-c.02/g16/l1.exe PID=   1826418.
  
 Copyright (c) 1988-2019, Gaussian, Inc.  All Rights Reserved.
  
 This is part of the Gaussian(R) 16 program.  It is based on
 the Gaussian(R) 09 system (copyright 2009, Gaussian, Inc.),
 the Gaussian(R) 03 system (copyright 2003, Gaussian, Inc.),
 the Gaussian(R) 98 system (copyright 1998, Gaussian, Inc.),
 the Gaussian(R) 94 system (copyright 1995, Gaussian, Inc.),
 the Gaussian 92(TM) system (copyright 1992, Gaussian, Inc.),
 the Gaussian 90(TM) system (copyright 1990, Gaussian, Inc.),
 the Gaussian 88(TM) system (copyright 1988, Gaussian, Inc.),
 the Gaussian 86(TM) system (copyright 1986, Carnegie Mellon
 University), and the Gaussian 82(TM) system (copyright 1983,
 Carnegie Mellon University). Gaussian is a federally registered
 trademark of Gaussian, Inc.
  
 This software contains proprietary and confidential information,
 including trade secrets, belonging to Gaussian, Inc.
  
 This software is provided under written license and may be
 used, copied, transmitted, or stored only in accord with that
 written license.
  
 The following legend is applicable only to US Government
 contracts under FAR:
  
                    RESTRICTED RIGHTS LEGEND
  
 Use, reproduction and disclosure by the US Government is
 subject to restrictions as set forth in subparagraphs (a)
 and (c) of the Commercial Computer Software - Restricted
 Rights clause in FAR 52.227-19.
  
 Gaussian, Inc.
 340 Quinnipiac St., Bldg. 40, Wallingford CT 06492
  
  
 ---------------------------------------------------------------
 Warning -- This program may not be used in any manner that
 competes with the business of Gaussian, Inc. or will provide
 assistance to any competitor of Gaussian, Inc.  The licensee
 of this program is prohibited from giving any competitor of
 Gaussian, Inc. access to this program.  By using this program,
 the user acknowledges that Gaussian, Inc. is engaged in the
 business of creating and licensing software in the field of
 computational chemistry and represents and warrants to the
 licensee that it is not a competitor of Gaussian, Inc. and that
 it will not use this program in any manner prohibited above.
 ---------------------------------------------------------------
  

 Cite this work as:
 Gaussian 16, Revision C.01,
 M. J. Frisch, G. W. Trucks, H. B. Schlegel, G. E. Scuseria, 
 M. A. Robb, J. R. Cheeseman, G. Scalmani, V. Barone, 
 G. A. Petersson, H. Nakatsuji, X. Li, M. Caricato, A. V. Marenich, 
 J. Bloino, B. G. Janesko, R. Gomperts, B. Mennucci, H. P. Hratchian, 
 J. V. Ortiz, A. F. Izmaylov, J. L. Sonnenberg, D. Williams-Young, 
 F. Ding, F. Lipparini, F. Egidi, J. Goings, B. Peng, A. Petrone, 
 T. Henderson, D. Ranasinghe, V. G. Zakrzewski, J. Gao, N. Rega, 
 G. Zheng, W. Liang, M. Hada, M. Ehara, K. Toyota, R. Fukuda, 
 J. Hasegawa, M. Ishida, T. Nakajima, Y. Honda, O. Kitao, H. Nakai, 
 T. Vreven, K. Throssell, J. A. Montgomery, Jr., J. E. Peralta, 
 F. Ogliaro, M. J. Bearpark, J. J. Heyd, E. N. Brothers, K. N. Kudin, 
 V. N. Staroverov, T. A. Keith, R. Kobayashi, J. Normand, 
 K. Raghavachari, A. P. Rendell, J. C. Burant, S. S. Iyengar, 
 J. Tomasi, M. Cossi, J. M. Millam, M. Klene, C. Adamo, R. Cammi, 
 J. W. Ochterski, R. L. Martin, K. Morokuma, O. Farkas, 
 J. B. Foresman, and D. J. Fox, Gaussian, Inc., Wallingford CT, 2019.
 
 ******************************************
 Gaussian 16:  ES64L-G16RevC.01  3-Jul-2019
                 8-Oct-2024 
 ******************************************
 %mem=20GB
 %NProcShared=6
 Will use up to    6 processors via shared memory.
 ---------------------------------------------------------
 #P b2plypd3/cc-pvtz # SCF=(xqc) # POpt=() # int=ultrafine
 ---------------------------------------------------------
 1/10=7,38=1/1,3;
 2/12=2,17=6,18=5,29=3,40=1/2;
 3/5=16,6=1,11=9,25=1,30=1,71=1,74=-60,75=-5/1,2,3;
 4//1;
 5/5=2,8=3,13=1,38=5/2,8;
 8/6=4,10=1/1;
 9/15=2,16=-3/6;
 10/5=1/2;
 6/7=2,8=2,9=2,10=2/1;
 7/12=2,29=1/1,2,3,16;
 1/10=7/3(2);
 2/29=3/2;
 99//99;
 2/29=3/2;
 3/5=16,6=1,11=9,25=1,30=1,71=1,74=-60,75=-5/1,2,3;
 4/5=5,16=3,69=1/1;
 5/5=2,8=3,13=1,38=5/2,8;
 8/6=4,10=1/1;
 9/15=2,16=-3/6;
 10/5=1/2;
 7/12=2/1,2,3,16;
 1//3(-8);
 2/29=3/2;
 6/7=2,8=2,9=2,10=2/1;
 99/9=10/99;
 Leave Link    1 at Tue Oct  8 13:10:46 2024, MaxMem=  2684354560 cpu:               0.4 elap:               0.0
 (Enter /gpfs/fs1/soft/bebop/software/custom-built/gaussian/16-c.02/g16/l101.exe)
 --------
 comment:
 --------
 Symbolic Z-matrix:
 Charge =  0 Multiplicity = 2
 C                    -1.01999   0.54833   1.18026 
 C                    -1.18583   0.14695   2.62293 
 C                     0.27619   0.7861    0.53321 
 H                    -1.87727   1.07115   0.75389 
 O                    -0.44976  -0.42293   0.28394 
 C                     1.62252   0.63441   1.18375 
 H                     0.267     1.46878  -0.31722 
 H                    -0.31804  -0.40124   2.99508 
 H                    -1.3257    1.04226   3.23864 
 H                    -2.06738  -0.48993   2.74388 
 H                     2.33468   0.24254   0.45062 
 H                     1.98932   1.60635   1.52997 
 H                     1.5956   -0.05471   2.0304 
 Cl                    0.29386  -0.66188  -2.41115 
 
 ITRead=  0  0  0  0  0  0  0  0  0  0  0  0  0  0
 MicOpt= -1 -1 -1 -1 -1 -1 -1 -1 -1 -1 -1 -1 -1 -1
 NAtoms=     14 NQM=       14 NQMF=       0 NMMI=      0 NMMIF=      0
                NMic=       0 NMicF=      0.
                    Isotopes and Nuclear Properties:
 (Nuclear quadrupole moments (NQMom) in fm**2, nuclear magnetic moments (NMagM)
  in nuclear magnetons)

  Atom         1           2           3           4           5           6           7           8           9          10
 IAtWgt=          12          12          12           1          16          12           1           1           1           1
 AtmWgt=  12.0000000  12.0000000  12.0000000   1.0078250  15.9949146  12.0000000   1.0078250   1.0078250   1.0078250   1.0078250
 NucSpn=           0           0           0           1           0           0           1           1           1           1
 AtZEff=  -0.0000000  -0.0000000  -0.0000000  -0.0000000  -0.0000000  -0.0000000  -0.0000000  -0.0000000  -0.0000000  -0.0000000
 NQMom=    0.0000000   0.0000000   0.0000000   0.0000000   0.0000000   0.0000000   0.0000000   0.0000000   0.0000000   0.0000000
 NMagM=    0.0000000   0.0000000   0.0000000   2.7928460   0.0000000   0.0000000   2.7928460   2.7928460   2.7928460   2.7928460
 AtZNuc=   6.0000000   6.0000000   6.0000000   1.0000000   8.0000000   6.0000000   1.0000000   1.0000000   1.0000000   1.0000000

  Atom        11          12          13          14
 IAtWgt=           1           1           1          35
 AtmWgt=   1.0078250   1.0078250   1.0078250  34.9688527
 NucSpn=           1           1           1           3
 AtZEff=  -0.0000000  -0.0000000  -0.0000000  -0.0000000
 NQMom=    0.0000000   0.0000000   0.0000000  -8.1650000
 NMagM=    2.7928460   2.7928460   2.7928460   0.8218740
 AtZNuc=   1.0000000   1.0000000   1.0000000  17.0000000
 Leave Link  101 at Tue Oct  8 13:10:47 2024, MaxMem=  2684354560 cpu:               0.5 elap:               0.1
 (Enter /gpfs/fs1/soft/bebop/software/custom-built/gaussian/16-c.02/g16/l103.exe)

 GradGradGradGradGradGradGradGradGradGradGradGradGradGradGradGradGradGrad
 Berny optimization.
 Initialization pass.
 No Z-matrix variables, so optimization will use Cartesian coordinates.
 Trust Radius=3.00D-01 FncErr=1.00D-07 GrdErr=1.00D-07 EigMax=2.50D+02 EigMin=1.00D-04
 Number of steps in this run=     52 maximum allowed number of steps=    100.
 GradGradGradGradGradGradGradGradGradGradGradGradGradGradGradGradGradGrad

 Leave Link  103 at Tue Oct  8 13:10:47 2024, MaxMem=  2684354560 cpu:               0.1 elap:               0.0
 (Enter /gpfs/fs1/soft/bebop/software/custom-built/gaussian/16-c.02/g16/l202.exe)
 ---------------------------------------------------------------------------------------------------
                            Z-MATRIX (ANGSTROMS AND DEGREES)
   CD    Cent   Atom    N1       Length/X        N2       Alpha/Y        N3        Beta/Z          J
 ---------------------------------------------------------------------------------------------------
      1      1  C        0  -1.019988          0.548329          1.180255
      2      2  C        0  -1.185832          0.146949          2.622928
      3      3  C        0   0.276187          0.786102          0.533205
      4      4  H        0  -1.877271          1.071148          0.753893
      5      5  O        0  -0.449758         -0.422927          0.283935
      6      6  C        0   1.622518          0.634409          1.183749
      7      7  H        0   0.267001          1.468781         -0.317219
      8      8  H        0  -0.318044         -0.401244          2.995075
      9      9  H        0  -1.325701          1.042258          3.238643
     10     10  H        0  -2.067380         -0.489927          2.743884
     11     11  H        0   2.334682          0.242536          0.450624
     12     12  H        0   1.989318          1.606350          1.529969
     13     13  H        0   1.595596         -0.054713          2.030399
     14     14  Cl       0   0.293863         -0.661876         -2.411145
 ---------------------------------------------------------------------------------------------------
                         Z-Matrix orientation:                         
 ---------------------------------------------------------------------
 Center     Atomic      Atomic             Coordinates (Angstroms)
 Number     Number       Type             X           Y           Z
 ---------------------------------------------------------------------
      1          6           0       -1.019988    0.548329    1.180255
      2          6           0       -1.185832    0.146949    2.622928
      3          6           0        0.276187    0.786102    0.533205
      4          1           0       -1.877271    1.071148    0.753893
      5          8           0       -0.449758   -0.422927    0.283935
      6          6           0        1.622518    0.634409    1.183749
      7          1           0        0.267001    1.468781   -0.317219
      8          1           0       -0.318044   -0.401244    2.995075
      9          1           0       -1.325701    1.042258    3.238643
     10          1           0       -2.067380   -0.489927    2.743884
     11          1           0        2.334682    0.242536    0.450624
     12          1           0        1.989318    1.606350    1.529969
     13          1           0        1.595596   -0.054713    2.030399
     14         17           0        0.293863   -0.661876   -2.411145
 ---------------------------------------------------------------------
                    Distance matrix (angstroms):
                    1          2          3          4          5
     1  C    0.000000
     2  C    1.506624   0.000000
     3  C    1.468087   2.629251   0.000000
     4  H    1.090898   2.196707   2.183423   0.000000
     5  O    1.439406   2.517430   1.432090   2.119178   0.000000
     6  C    2.643910   3.193068   1.502939   3.553033   2.494384
     7  H    2.178532   3.535877   1.090576   2.429670   2.110376
     8  H    2.165176   1.091817   2.797089   3.101939   2.714424
     9  H    2.138782   1.095558   3.154529   2.545397   3.412381
    10  H    2.149405   1.094243   3.465207   2.536368   2.944917
    11  H    3.446691   4.137881   2.130654   4.303384   2.867705
    12  H    3.208992   3.661419   2.145032   3.979855   3.408762
    13  H    2.815614   2.850982   2.165502   3.867536   2.714625
    14  Cl   4.011104   5.309010   3.281181   4.211254   2.805980
                    6          7          8          9         10
     6  C    0.000000
     7  H    2.187809   0.000000
     8  H    2.849432   3.848449   0.000000
     9  H    3.616756   3.919538   1.777188   0.000000
    10  H    4.160949   4.319285   1.769502   1.772700   0.000000
    11  H    1.094630   2.523601   3.731707   4.670226   5.017339
    12  H    1.095025   2.529309   3.391296   3.771885   4.724909
    13  H    1.091984   3.097985   2.170876   3.346218   3.757109
    14  Cl   4.045855   2.987465   5.446978   6.119409   5.672685
                   11         12         13         14
    11  H    0.000000
    12  H    1.773203   0.000000
    13  H    1.769264   1.778926   0.000000
    14  Cl   3.629411   4.853019   4.668026   0.000000
 Stoichiometry    C4H8ClO(2)
 Framework group  C1[X(C4H8ClO)]
 Deg. of freedom    36
 Full point group                 C1      NOp   1
 Largest Abelian subgroup         C1      NOp   1
 Largest concise Abelian subgroup C1      NOp   1
                         Standard orientation:                         
 ---------------------------------------------------------------------
 Center     Atomic      Atomic             Coordinates (Angstroms)
 Number     Number       Type             X           Y           Z
 ---------------------------------------------------------------------
      1          6           0        1.305401   -0.691439    0.452863
      2          6           0        2.629928   -0.785914   -0.258909
      3          6           0        0.487443    0.525995    0.516727
      4          1           0        1.177540   -1.404162    1.268789
      5          8           0        0.125824   -0.547552   -0.359408
      6          6           0        0.816026    1.839056   -0.136518
      7          1           0       -0.175343    0.611016    1.378610
      8          1           0        2.698363   -0.077445   -1.086831
      9          1           0        3.441229   -0.579192    0.447704
     10          1           0        2.777354   -1.793028   -0.660599
     11          1           0       -0.108554    2.307650   -0.488350
     12          1           0        1.288188    2.514817    0.584238
     13          1           0        1.480786    1.717448   -0.994269
     14         17           0       -2.648173   -0.249581   -0.059941
 ---------------------------------------------------------------------
 Rotational constants (GHZ):           5.0363178           1.2451504           1.0647558
 Leave Link  202 at Tue Oct  8 13:10:47 2024, MaxMem=  2684354560 cpu:               0.1 elap:               0.0
 (Enter /gpfs/fs1/soft/bebop/software/custom-built/gaussian/16-c.02/g16/l301.exe)
 Standard basis: CC-pVTZ (5D, 7F)
 Ernie: Thresh=  0.10000D-02 Tol=  0.10000D-05 Strict=F.
 Ernie:  28 primitive shells out of 254 were deleted.
 There are   334 symmetry adapted cartesian basis functions of A   symmetry.
 There are   296 symmetry adapted basis functions of A   symmetry.
   296 basis functions,   490 primitive gaussians,   334 cartesian basis functions
    29 alpha electrons       28 beta electrons
       nuclear repulsion energy       278.6516709600 Hartrees.
 IExCor=  419 DFT=T Ex+Corr=B2PLYPD3 ExCW=0 ScaHFX=  0.530000
 ScaDFX=  0.470000  0.470000  0.730000  0.730000 ScalE2=  0.270000  0.270000
 IRadAn=      5 IRanWt=     -1 IRanGd=            0 ICorTp=0 IEmpDi=141
 NAtoms=   14 NActive=   14 NUniq=   14 SFac= 1.00D+00 NAtFMM=   60 NAOKFM=F Big=F
 Integral buffers will be    131072 words long.
 Regular integral format.
 Two-electron integral symmetry is turned on.
 R6Disp:  Grimme-D3(BJ) Dispersion energy=       -0.0078016622 Hartrees.
 Nuclear repulsion after empirical dispersion term =      278.6438692978 Hartrees.
 Leave Link  301 at Tue Oct  8 13:10:47 2024, MaxMem=  2684354560 cpu:               0.3 elap:               0.1
 (Enter /gpfs/fs1/soft/bebop/software/custom-built/gaussian/16-c.02/g16/l302.exe)
 NPDir=0 NMtPBC=     1 NCelOv=     1 NCel=       1 NClECP=     1 NCelD=      1
         NCelK=      1 NCelE2=     1 NClLst=     1 CellRange=     0.0.
 One-electron integrals computed using PRISM.
 One-electron integral symmetry used in STVInt
 NBasis=   296 RedAO= T EigKep=  2.71D-04  NBF=   296
 NBsUse=   296 1.00D-06 EigRej= -1.00D+00 NBFU=   296
 Precomputing XC quadrature grid using
 IXCGrd= 4 IRadAn=           5 IRanWt=          -1 IRanGd=           0 AccXCQ= 0.00D+00.
 Generated NRdTot=       0 NPtTot=           0 NUsed=           0 NTot=          32
 NSgBfM=   334   334   334   334   334 MxSgAt=    14 MxSgA2=    14.
 Leave Link  302 at Tue Oct  8 13:10:47 2024, MaxMem=  2684354560 cpu:               1.1 elap:               0.2
 (Enter /gpfs/fs1/soft/bebop/software/custom-built/gaussian/16-c.02/g16/l303.exe)
 DipDrv:  MaxL=1.
 Leave Link  303 at Tue Oct  8 13:10:47 2024, MaxMem=  2684354560 cpu:               0.2 elap:               0.1
 (Enter /gpfs/fs1/soft/bebop/software/custom-built/gaussian/16-c.02/g16/l401.exe)
 ExpMin= 1.03D-01 ExpMax= 4.56D+05 ExpMxC= 1.44D+03 IAcc=3 IRadAn=         5 AccDes= 0.00D+00
 Harris functional with IExCor=  419 and IRadAn=       5 diagonalized for initial guess.
 HarFok:  IExCor=  419 AccDes= 0.00D+00 IRadAn=         5 IDoV= 1 UseB2=F ITyADJ=14
 ICtDFT=  3500011 ScaDFX=  1.000000  1.000000  1.000000  1.000000
 FoFCou: FMM=F IPFlag=           0 FMFlag=      100000 FMFlg1=           0
         NFxFlg=           0 DoJE=T BraDBF=F KetDBF=T FulRan=T
         wScrn=  0.000000 ICntrl=       500 IOpCl=  0 I1Cent=   200000004 NGrid=           0
         NMat0=    1 NMatS0=      1 NMatT0=    0 NMatD0=    1 NMtDS0=    0 NMtDT0=    0
 Petite list used in FoFCou.
 Harris En= -692.663135663268    
 JPrj=0 DoOrth=F DoCkMO=F.
 Initial guess <Sx>= 0.0000 <Sy>= 0.0000 <Sz>= 0.5000 <S**2>= 0.7500 S= 0.5000
 Leave Link  401 at Tue Oct  8 13:10:49 2024, MaxMem=  2684354560 cpu:               5.1 elap:               0.9
 (Enter /gpfs/fs1/soft/bebop/software/custom-built/gaussian/16-c.02/g16/l502.exe)
 Keep R1 and R2 ints in memory in canonical form, NReq=1950973320.
 FoFCou: FMM=F IPFlag=           0 FMFlag=           0 FMFlg1=           0
         NFxFlg=           0 DoJE=F BraDBF=F KetDBF=F FulRan=T
         wScrn=  0.000000 ICntrl=       600 IOpCl=  0 I1Cent=           0 NGrid=           0
         NMat0=    1 NMatS0=  43956 NMatT0=    0 NMatD0=    1 NMtDS0=    0 NMtDT0=    0
 Symmetry not used in FoFCou.
 Two-electron integral symmetry not used.
 UHF open shell SCF:
 Using DIIS extrapolation, IDIIS=  1040.
 NGot=  2684354560 LenX=   751952220 LenY=   751840223
 Requested convergence on RMS density matrix=1.00D-08 within  32 cycles.
 Requested convergence on MAX density matrix=1.00D-06.
 Requested convergence on             energy=1.00D-06.
 No special actions if energy rises.
 Integral accuracy reduced to 1.0D-05 until final iterations.

 Cycle   1  Pass 0  IDiag  1:
 E= -691.788336882039    
 DIIS: error= 3.60D-02 at cycle   1 NSaved=   1.
 NSaved= 1 IEnMin= 1 EnMin= -691.788336882039     IErMin= 1 ErrMin= 3.60D-02
 ErrMax= 3.60D-02  0.00D+00 EMaxC= 1.00D-01 BMatC= 1.14D+00 BMatP= 1.14D+00
 IDIUse=3 WtCom= 6.40D-01 WtEn= 3.60D-01
 Coeff-Com:  0.100D+01
 Coeff-En:   0.100D+01
 Coeff:      0.100D+01
 Gap=     0.713 Goal=   None    Shift=    0.000
 Gap=     0.241 Goal=   None    Shift=    0.000
 GapD=    0.241 DampG=1.000 DampE=0.500 DampFc=0.5000 IDamp=-1.
 Damping current iteration by 5.00D-01
 RMSDP=1.74D-03 MaxDP=5.86D-02              OVMax= 2.14D-01

 Cycle   2  Pass 0  IDiag  1:
 E= -691.895147454558     Delta-E=       -0.106810572519 Rises=F Damp=T
 DIIS: error= 8.80D-03 at cycle   2 NSaved=   2.
 NSaved= 2 IEnMin= 2 EnMin= -691.895147454558     IErMin= 2 ErrMin= 8.80D-03
 ErrMax= 8.80D-03  0.00D+00 EMaxC= 1.00D-01 BMatC= 1.19D-01 BMatP= 1.14D+00
 IDIUse=3 WtCom= 9.12D-01 WtEn= 8.80D-02
 Coeff-Com: -0.213D+00 0.121D+01
 Coeff-En:   0.000D+00 0.100D+01
 Coeff:     -0.194D+00 0.119D+01
 Gap=     0.463 Goal=   None    Shift=    0.000
 Gap=     0.223 Goal=   None    Shift=    0.000
 RMSDP=4.54D-04 MaxDP=2.56D-02 DE=-1.07D-01 OVMax= 1.58D-01

 Cycle   3  Pass 0  IDiag  1:
 E= -691.992703858957     Delta-E=       -0.097556404400 Rises=F Damp=F
 DIIS: error= 4.33D-03 at cycle   3 NSaved=   3.
 NSaved= 3 IEnMin= 3 EnMin= -691.992703858957     IErMin= 3 ErrMin= 4.33D-03
 ErrMax= 4.33D-03  0.00D+00 EMaxC= 1.00D-01 BMatC= 2.92D-02 BMatP= 1.19D-01
 IDIUse=3 WtCom= 9.57D-01 WtEn= 4.33D-02
 Coeff-Com: -0.144D+00 0.404D+00 0.740D+00
 Coeff-En:   0.000D+00 0.000D+00 0.100D+01
 Coeff:     -0.138D+00 0.387D+00 0.751D+00
 Gap=     0.432 Goal=   None    Shift=    0.000
 Gap=     0.227 Goal=   None    Shift=    0.000
 RMSDP=2.36D-04 MaxDP=8.83D-03 DE=-9.76D-02 OVMax= 2.40D-02

 Cycle   4  Pass 0  IDiag  1:
 E= -691.996926665869     Delta-E=       -0.004222806912 Rises=F Damp=F
 DIIS: error= 1.89D-03 at cycle   4 NSaved=   4.
 NSaved= 4 IEnMin= 4 EnMin= -691.996926665869     IErMin= 4 ErrMin= 1.89D-03
 ErrMax= 1.89D-03  0.00D+00 EMaxC= 1.00D-01 BMatC= 7.98D-03 BMatP= 2.92D-02
 IDIUse=3 WtCom= 9.81D-01 WtEn= 1.89D-02
 Coeff-Com: -0.577D-01 0.109D+00 0.391D+00 0.558D+00
 Coeff-En:   0.000D+00 0.000D+00 0.125D+00 0.875D+00
 Coeff:     -0.566D-01 0.107D+00 0.386D+00 0.564D+00
 Gap=     0.427 Goal=   None    Shift=    0.000
 Gap=     0.210 Goal=   None    Shift=    0.000
 RMSDP=9.41D-05 MaxDP=4.07D-03 DE=-4.22D-03 OVMax= 2.15D-02

 Cycle   5  Pass 0  IDiag  1:
 E= -691.998514903595     Delta-E=       -0.001588237726 Rises=F Damp=F
 DIIS: error= 4.36D-04 at cycle   5 NSaved=   5.
 NSaved= 5 IEnMin= 5 EnMin= -691.998514903595     IErMin= 5 ErrMin= 4.36D-04
 ErrMax= 4.36D-04  0.00D+00 EMaxC= 1.00D-01 BMatC= 3.36D-04 BMatP= 7.98D-03
 IDIUse=3 WtCom= 9.96D-01 WtEn= 4.36D-03
 Coeff-Com: -0.613D-02 0.321D-02 0.341D-01 0.176D+00 0.793D+00
 Coeff-En:   0.000D+00 0.000D+00 0.000D+00 0.000D+00 0.100D+01
 Coeff:     -0.611D-02 0.320D-02 0.339D-01 0.175D+00 0.794D+00
 Gap=     0.424 Goal=   None    Shift=    0.000
 Gap=     0.212 Goal=   None    Shift=    0.000
 RMSDP=3.05D-05 MaxDP=1.58D-03 DE=-1.59D-03 OVMax= 1.14D-02

 Cycle   6  Pass 0  IDiag  1:
 E= -691.998636856737     Delta-E=       -0.000121953142 Rises=F Damp=F
 DIIS: error= 2.22D-04 at cycle   6 NSaved=   6.
 NSaved= 6 IEnMin= 6 EnMin= -691.998636856737     IErMin= 6 ErrMin= 2.22D-04
 ErrMax= 2.22D-04  0.00D+00 EMaxC= 1.00D-01 BMatC= 3.99D-05 BMatP= 3.36D-04
 IDIUse=3 WtCom= 9.98D-01 WtEn= 2.22D-03
 Coeff-Com:  0.656D-02-0.131D-01-0.568D-01-0.366D-01 0.112D+00 0.988D+00
 Coeff-En:   0.000D+00 0.000D+00 0.000D+00 0.000D+00 0.000D+00 0.100D+01
 Coeff:      0.655D-02-0.131D-01-0.567D-01-0.365D-01 0.111D+00 0.988D+00
 Gap=     0.423 Goal=   None    Shift=    0.000
 Gap=     0.212 Goal=   None    Shift=    0.000
 RMSDP=2.27D-05 MaxDP=1.18D-03 DE=-1.22D-04 OVMax= 9.06D-03

 Cycle   7  Pass 0  IDiag  1:
 E= -691.998675004182     Delta-E=       -0.000038147445 Rises=F Damp=F
 DIIS: error= 9.17D-05 at cycle   7 NSaved=   7.
 NSaved= 7 IEnMin= 7 EnMin= -691.998675004182     IErMin= 7 ErrMin= 9.17D-05
 ErrMax= 9.17D-05  0.00D+00 EMaxC= 1.00D-01 BMatC= 8.56D-06 BMatP= 3.99D-05
 IDIUse=1 WtCom= 1.00D+00 WtEn= 0.00D+00
 Coeff-Com:  0.146D-02-0.103D-02-0.176D-01-0.331D-01-0.133D+00 0.215D+00
 Coeff-Com:  0.968D+00
 Coeff:      0.146D-02-0.103D-02-0.176D-01-0.331D-01-0.133D+00 0.215D+00
 Coeff:      0.968D+00
 Gap=     0.423 Goal=   None    Shift=    0.000
 Gap=     0.213 Goal=   None    Shift=    0.000
 RMSDP=1.22D-05 MaxDP=6.37D-04 DE=-3.81D-05 OVMax= 5.10D-03

 Cycle   8  Pass 0  IDiag  1:
 E= -691.998684399591     Delta-E=       -0.000009395409 Rises=F Damp=F
 DIIS: error= 5.15D-05 at cycle   8 NSaved=   8.
 NSaved= 8 IEnMin= 8 EnMin= -691.998684399591     IErMin= 8 ErrMin= 5.15D-05
 ErrMax= 5.15D-05  0.00D+00 EMaxC= 1.00D-01 BMatC= 1.52D-06 BMatP= 8.56D-06
 IDIUse=1 WtCom= 1.00D+00 WtEn= 0.00D+00
 Coeff-Com: -0.160D-02 0.338D-02 0.104D-01 0.863D-02-0.238D-01-0.197D+00
 Coeff-Com:  0.573D-01 0.114D+01
 Coeff:     -0.160D-02 0.338D-02 0.104D-01 0.863D-02-0.238D-01-0.197D+00
 Coeff:      0.573D-01 0.114D+01
 Gap=     0.422 Goal=   None    Shift=    0.000
 Gap=     0.213 Goal=   None    Shift=    0.000
 RMSDP=6.42D-06 MaxDP=3.18D-04 DE=-9.40D-06 OVMax= 2.29D-03

 Initial convergence to 1.0D-05 achieved.  Increase integral accuracy.
 Cycle   9  Pass 1  IDiag  1:
 E= -691.998689418916     Delta-E=       -0.000005019325 Rises=F Damp=F
 DIIS: error= 5.49D-05 at cycle   1 NSaved=   1.
 NSaved= 1 IEnMin= 1 EnMin= -691.998689418916     IErMin= 1 ErrMin= 5.49D-05
 ErrMax= 5.49D-05  0.00D+00 EMaxC= 1.00D-01 BMatC= 3.85D-07 BMatP= 3.85D-07
 IDIUse=1 WtCom= 1.00D+00 WtEn= 0.00D+00
 Coeff-Com:  0.100D+01
 Coeff:      0.100D+01
 Gap=     0.422 Goal=   None    Shift=    0.000
 Gap=     0.213 Goal=   None    Shift=    0.000
 RMSDP=6.42D-06 MaxDP=3.18D-04 DE=-5.02D-06 OVMax= 8.12D-04

 Cycle  10  Pass 1  IDiag  1:
 E= -691.998690013301     Delta-E=       -0.000000594385 Rises=F Damp=F
 DIIS: error= 5.33D-05 at cycle   2 NSaved=   2.
 NSaved= 2 IEnMin= 2 EnMin= -691.998690013301     IErMin= 2 ErrMin= 5.33D-05
 ErrMax= 5.33D-05  0.00D+00 EMaxC= 1.00D-01 BMatC= 2.38D-07 BMatP= 3.85D-07
 IDIUse=1 WtCom= 1.00D+00 WtEn= 0.00D+00
 Coeff-Com:  0.184D+00 0.816D+00
 Coeff:      0.184D+00 0.816D+00
 Gap=     0.422 Goal=   None    Shift=    0.000
 Gap=     0.213 Goal=   None    Shift=    0.000
 RMSDP=1.63D-06 MaxDP=1.59D-04 DE=-5.94D-07 OVMax= 6.38D-04

 Cycle  11  Pass 1  IDiag  1:
 E= -691.998690428470     Delta-E=       -0.000000415169 Rises=F Damp=F
 DIIS: error= 5.19D-05 at cycle   3 NSaved=   3.
 NSaved= 3 IEnMin= 3 EnMin= -691.998690428470     IErMin= 3 ErrMin= 5.19D-05
 ErrMax= 5.19D-05  0.00D+00 EMaxC= 1.00D-01 BMatC= 1.98D-07 BMatP= 2.38D-07
 IDIUse=1 WtCom= 1.00D+00 WtEn= 0.00D+00
 Coeff-Com: -0.230D+00 0.262D+00 0.969D+00
 Coeff:     -0.230D+00 0.262D+00 0.969D+00
 Gap=     0.422 Goal=   None    Shift=    0.000
 Gap=     0.213 Goal=   None    Shift=    0.000
 RMSDP=2.28D-06 MaxDP=2.28D-04 DE=-4.15D-07 OVMax= 9.24D-04

 Cycle  12  Pass 1  IDiag  1:
 E= -691.998690989215     Delta-E=       -0.000000560745 Rises=F Damp=F
 DIIS: error= 4.97D-05 at cycle   4 NSaved=   4.
 NSaved= 4 IEnMin= 4 EnMin= -691.998690989215     IErMin= 4 ErrMin= 4.97D-05
 ErrMax= 4.97D-05  0.00D+00 EMaxC= 1.00D-01 BMatC= 1.65D-07 BMatP= 1.98D-07
 IDIUse=1 WtCom= 1.00D+00 WtEn= 0.00D+00
 Coeff-Com: -0.131D+00-0.464D+00 0.143D+00 0.145D+01
 Coeff:     -0.131D+00-0.464D+00 0.143D+00 0.145D+01
 Gap=     0.422 Goal=   None    Shift=    0.000
 Gap=     0.213 Goal=   None    Shift=    0.000
 RMSDP=3.92D-06 MaxDP=3.95D-04 DE=-5.61D-07 OVMax= 1.60D-03

 Cycle  13  Pass 1  IDiag  1:
 E= -691.998691883422     Delta-E=       -0.000000894207 Rises=F Damp=F
 DIIS: error= 4.59D-05 at cycle   5 NSaved=   5.
 NSaved= 5 IEnMin= 5 EnMin= -691.998691883422     IErMin= 5 ErrMin= 4.59D-05
 ErrMax= 4.59D-05  0.00D+00 EMaxC= 1.00D-01 BMatC= 1.40D-07 BMatP= 1.65D-07
 IDIUse=1 WtCom= 1.00D+00 WtEn= 0.00D+00
 Coeff-Com:  0.246D+00-0.613D+00-0.117D+01 0.694D+00 0.184D+01
 Coeff:      0.246D+00-0.613D+00-0.117D+01 0.694D+00 0.184D+01
 Gap=     0.422 Goal=   None    Shift=    0.000
 Gap=     0.213 Goal=   None    Shift=    0.000
 RMSDP=8.18D-06 MaxDP=8.26D-04 DE=-8.94D-07 OVMax= 3.36D-03

 Cycle  14  Pass 1  IDiag  1:
 E= -691.998693496669     Delta-E=       -0.000001613246 Rises=F Damp=F
 DIIS: error= 3.74D-05 at cycle   6 NSaved=   6.
 NSaved= 6 IEnMin= 6 EnMin= -691.998693496669     IErMin= 6 ErrMin= 3.74D-05
 ErrMax= 3.74D-05  0.00D+00 EMaxC= 1.00D-01 BMatC= 9.88D-08 BMatP= 1.40D-07
 IDIUse=1 WtCom= 1.00D+00 WtEn= 0.00D+00
 Coeff-Com:  0.249D+00 0.341D+00-0.463D+00-0.166D+01 0.657D+00 0.187D+01
 Coeff:      0.249D+00 0.341D+00-0.463D+00-0.166D+01 0.657D+00 0.187D+01
 Gap=     0.422 Goal=   None    Shift=    0.000
 Gap=     0.213 Goal=   None    Shift=    0.000
 RMSDP=1.23D-05 MaxDP=1.24D-03 DE=-1.61D-06 OVMax= 5.02D-03

 Cycle  15  Pass 1  IDiag  1:
 E= -691.998695281273     Delta-E=       -0.000001784605 Rises=F Damp=F
 DIIS: error= 2.44D-05 at cycle   7 NSaved=   7.
 NSaved= 7 IEnMin= 7 EnMin= -691.998695281273     IErMin= 7 ErrMin= 2.44D-05
 ErrMax= 2.44D-05  0.00D+00 EMaxC= 1.00D-01 BMatC= 4.74D-08 BMatP= 9.88D-08
 IDIUse=1 WtCom= 1.00D+00 WtEn= 0.00D+00
 Coeff-Com: -0.213D+00 0.861D+00 0.135D+01-0.152D+01-0.203D+01 0.595D+00
 Coeff-Com:  0.195D+01
 Coeff:     -0.213D+00 0.861D+00 0.135D+01-0.152D+01-0.203D+01 0.595D+00
 Coeff:      0.195D+01
 Gap=     0.422 Goal=   None    Shift=    0.000
 Gap=     0.213 Goal=   None    Shift=    0.000
 RMSDP=1.75D-05 MaxDP=1.76D-03 DE=-1.78D-06 OVMax= 7.12D-03

 Cycle  16  Pass 1  IDiag  1:
 E= -691.998696500403     Delta-E=       -0.000001219129 Rises=F Damp=F
 DIIS: error= 5.21D-06 at cycle   8 NSaved=   8.
 NSaved= 8 IEnMin= 8 EnMin= -691.998696500403     IErMin= 8 ErrMin= 5.21D-06
 ErrMax= 5.21D-06  0.00D+00 EMaxC= 1.00D-01 BMatC= 6.26D-09 BMatP= 4.74D-08
 IDIUse=1 WtCom= 1.00D+00 WtEn= 0.00D+00
 Coeff-Com: -0.451D-01-0.113D+00 0.369D-01 0.392D+00-0.891D-03-0.405D+00
 Coeff-Com: -0.958D-01 0.123D+01
 Coeff:     -0.451D-01-0.113D+00 0.369D-01 0.392D+00-0.891D-03-0.405D+00
 Coeff:     -0.958D-01 0.123D+01
 Gap=     0.422 Goal=   None    Shift=    0.000
 Gap=     0.213 Goal=   None    Shift=    0.000
 RMSDP=3.11D-06 MaxDP=3.13D-04 DE=-1.22D-06 OVMax= 1.27D-03

 Cycle  17  Pass 1  IDiag  1:
 E= -691.998696554237     Delta-E=       -0.000000053835 Rises=F Damp=F
 DIIS: error= 1.71D-06 at cycle   9 NSaved=   9.
 NSaved= 9 IEnMin= 9 EnMin= -691.998696554237     IErMin= 9 ErrMin= 1.71D-06
 ErrMax= 1.71D-06  0.00D+00 EMaxC= 1.00D-01 BMatC= 1.24D-09 BMatP= 6.26D-09
 IDIUse=1 WtCom= 1.00D+00 WtEn= 0.00D+00
 Coeff-Com:  0.515D-01-0.260D+00-0.354D+00 0.467D+00 0.574D+00-0.264D+00
 Coeff-Com: -0.549D+00 0.263D+00 0.107D+01
 Coeff:      0.515D-01-0.260D+00-0.354D+00 0.467D+00 0.574D+00-0.264D+00
 Coeff:     -0.549D+00 0.263D+00 0.107D+01
 Gap=     0.422 Goal=   None    Shift=    0.000
 Gap=     0.213 Goal=   None    Shift=    0.000
 RMSDP=1.41D-06 MaxDP=1.43D-04 DE=-5.38D-08 OVMax= 5.76D-04

 Cycle  18  Pass 1  IDiag  1:
 E= -691.998696561525     Delta-E=       -0.000000007288 Rises=F Damp=F
 DIIS: error= 4.20D-07 at cycle  10 NSaved=  10.
 NSaved=10 IEnMin=10 EnMin= -691.998696561525     IErMin=10 ErrMin= 4.20D-07
 ErrMax= 4.20D-07  0.00D+00 EMaxC= 1.00D-01 BMatC= 1.39D-10 BMatP= 1.24D-09
 IDIUse=1 WtCom= 1.00D+00 WtEn= 0.00D+00
 Coeff-Com:  0.140D-01-0.423D-01-0.701D-01 0.649D-01 0.108D+00-0.311D-01
 Coeff-Com: -0.103D+00-0.892D-02 0.282D+00 0.786D+00
 Coeff:      0.140D-01-0.423D-01-0.701D-01 0.649D-01 0.108D+00-0.311D-01
 Coeff:     -0.103D+00-0.892D-02 0.282D+00 0.786D+00
 Gap=     0.422 Goal=   None    Shift=    0.000
 Gap=     0.213 Goal=   None    Shift=    0.000
 RMSDP=1.71D-07 MaxDP=1.79D-05 DE=-7.29D-09 OVMax= 6.60D-05

 Cycle  19  Pass 1  IDiag  1:
 E= -691.998696561698     Delta-E=       -0.000000000173 Rises=F Damp=F
 DIIS: error= 3.05D-07 at cycle  11 NSaved=  11.
 NSaved=11 IEnMin=11 EnMin= -691.998696561698     IErMin=11 ErrMin= 3.05D-07
 ErrMax= 3.05D-07  0.00D+00 EMaxC= 1.00D-01 BMatC= 2.86D-11 BMatP= 1.39D-10
 IDIUse=1 WtCom= 1.00D+00 WtEn= 0.00D+00
 Coeff-Com: -0.346D-02 0.133D-01 0.176D-01-0.127D-01-0.399D-01 0.130D-01
 Coeff-Com:  0.323D-01 0.595D-02-0.156D+00-0.204D+00 0.133D+01
 Coeff:     -0.346D-02 0.133D-01 0.176D-01-0.127D-01-0.399D-01 0.130D-01
 Coeff:      0.323D-01 0.595D-02-0.156D+00-0.204D+00 0.133D+01
 Gap=     0.422 Goal=   None    Shift=    0.000
 Gap=     0.213 Goal=   None    Shift=    0.000
 RMSDP=3.79D-08 MaxDP=4.46D-06 DE=-1.73D-10 OVMax= 1.45D-05

 Cycle  20  Pass 1  IDiag  1:
 E= -691.998696561750     Delta-E=       -0.000000000052 Rises=F Damp=F
 DIIS: error= 2.70D-07 at cycle  12 NSaved=  12.
 NSaved=12 IEnMin=12 EnMin= -691.998696561750     IErMin=12 ErrMin= 2.70D-07
 ErrMax= 2.70D-07  0.00D+00 EMaxC= 1.00D-01 BMatC= 1.01D-11 BMatP= 2.86D-11
 IDIUse=1 WtCom= 1.00D+00 WtEn= 0.00D+00
 Coeff-Com:  0.385D-03-0.338D-02-0.454D-02 0.870D-02 0.378D-02-0.277D-02
 Coeff-Com: -0.297D-02 0.861D-02-0.314D-01-0.142D+00 0.349D-01 0.113D+01
 Coeff:      0.385D-03-0.338D-02-0.454D-02 0.870D-02 0.378D-02-0.277D-02
 Coeff:     -0.297D-02 0.861D-02-0.314D-01-0.142D+00 0.349D-01 0.113D+01
 Gap=     0.422 Goal=   None    Shift=    0.000
 Gap=     0.213 Goal=   None    Shift=    0.000
 RMSDP=1.78D-08 MaxDP=1.80D-06 DE=-5.15D-11 OVMax= 7.12D-06

 Cycle  21  Pass 1  IDiag  1:
 E= -691.998696561777     Delta-E=       -0.000000000027 Rises=F Damp=F
 DIIS: error= 2.51D-07 at cycle  13 NSaved=  13.
 NSaved=13 IEnMin=13 EnMin= -691.998696561777     IErMin=13 ErrMin= 2.51D-07
 ErrMax= 2.51D-07  0.00D+00 EMaxC= 1.00D-01 BMatC= 6.46D-12 BMatP= 1.01D-11
 IDIUse=1 WtCom= 1.00D+00 WtEn= 0.00D+00
 Coeff-Com:  0.208D-02-0.680D-02-0.107D-01 0.103D-01 0.167D-01-0.602D-02
 Coeff-Com: -0.139D-01 0.355D-02 0.413D-01 0.321D-01-0.298D+00 0.555D-01
 Coeff-Com:  0.117D+01
 Coeff:      0.208D-02-0.680D-02-0.107D-01 0.103D-01 0.167D-01-0.602D-02
 Coeff:     -0.139D-01 0.355D-02 0.413D-01 0.321D-01-0.298D+00 0.555D-01
 Coeff:      0.117D+01
 Gap=     0.422 Goal=   None    Shift=    0.000
 Gap=     0.213 Goal=   None    Shift=    0.000
 RMSDP=1.66D-08 MaxDP=1.39D-06 DE=-2.73D-11 OVMax= 6.17D-06

 Cycle  22  Pass 1  IDiag  1:
 E= -691.998696561801     Delta-E=       -0.000000000024 Rises=F Damp=F
 DIIS: error= 2.36D-07 at cycle  14 NSaved=  14.
 NSaved=14 IEnMin=14 EnMin= -691.998696561801     IErMin=14 ErrMin= 2.36D-07
 ErrMax= 2.36D-07  0.00D+00 EMaxC= 1.00D-01 BMatC= 5.43D-12 BMatP= 6.46D-12
 IDIUse=1 WtCom= 1.00D+00 WtEn= 0.00D+00
 Coeff-Com:  0.403D-03 0.138D-02 0.838D-03-0.263D-02-0.175D-02 0.783D-03
 Coeff-Com:  0.208D-02-0.127D-02-0.120D-01 0.342D-01 0.361D+00-0.648D+00
 Coeff-Com: -0.209D+01 0.335D+01
 Coeff:      0.403D-03 0.138D-02 0.838D-03-0.263D-02-0.175D-02 0.783D-03
 Coeff:      0.208D-02-0.127D-02-0.120D-01 0.342D-01 0.361D+00-0.648D+00
 Coeff:     -0.209D+01 0.335D+01
 Gap=     0.422 Goal=   None    Shift=    0.000
 Gap=     0.213 Goal=   None    Shift=    0.000
 RMSDP=4.50D-08 MaxDP=3.91D-06 DE=-2.39D-11 OVMax= 1.74D-05

 Cycle  23  Pass 1  IDiag  1:
 E= -691.998696561857     Delta-E=       -0.000000000056 Rises=F Damp=F
 DIIS: error= 1.96D-07 at cycle  15 NSaved=  15.
 NSaved=15 IEnMin=15 EnMin= -691.998696561857     IErMin=15 ErrMin= 1.96D-07
 ErrMax= 1.96D-07  0.00D+00 EMaxC= 1.00D-01 BMatC= 3.88D-12 BMatP= 5.43D-12
 IDIUse=1 WtCom= 1.00D+00 WtEn= 0.00D+00
 Coeff-Com: -0.430D-03 0.233D-02 0.377D-02-0.401D-02-0.480D-02 0.177D-02
 Coeff-Com:  0.554D-02-0.421D-02-0.343D-01-0.339D-01 0.340D+00 0.900D-01
 Coeff-Com: -0.156D+01-0.125D+01 0.345D+01
 Coeff:     -0.430D-03 0.233D-02 0.377D-02-0.401D-02-0.480D-02 0.177D-02
 Coeff:      0.554D-02-0.421D-02-0.343D-01-0.339D-01 0.340D+00 0.900D-01
 Coeff:     -0.156D+01-0.125D+01 0.345D+01
 Gap=     0.422 Goal=   None    Shift=    0.000
 Gap=     0.213 Goal=   None    Shift=    0.000
 RMSDP=1.25D-07 MaxDP=1.06D-05 DE=-5.56D-11 OVMax= 4.76D-05

 Cycle  24  Pass 1  IDiag  1:
 E= -691.998696561964     Delta-E=       -0.000000000107 Rises=F Damp=F
 DIIS: error= 8.95D-08 at cycle  16 NSaved=  16.
 NSaved=16 IEnMin=16 EnMin= -691.998696561964     IErMin=16 ErrMin= 8.95D-08
 ErrMax= 8.95D-08  0.00D+00 EMaxC= 1.00D-01 BMatC= 1.06D-12 BMatP= 3.88D-12
 IDIUse=1 WtCom= 1.00D+00 WtEn= 0.00D+00
 Coeff-Com:  0.600D-03-0.317D-02-0.370D-02 0.415D-02 0.777D-02-0.333D-02
 Coeff-Com: -0.582D-02 0.207D-02 0.181D-01-0.183D-01-0.275D+00 0.447D+00
 Coeff-Com:  0.143D+01-0.235D+01 0.154D+00 0.160D+01
 Coeff:      0.600D-03-0.317D-02-0.370D-02 0.415D-02 0.777D-02-0.333D-02
 Coeff:     -0.582D-02 0.207D-02 0.181D-01-0.183D-01-0.275D+00 0.447D+00
 Coeff:      0.143D+01-0.235D+01 0.154D+00 0.160D+01
 Gap=     0.422 Goal=   None    Shift=    0.000
 Gap=     0.213 Goal=   None    Shift=    0.000
 RMSDP=8.45D-08 MaxDP=7.27D-06 DE=-1.07D-10 OVMax= 3.26D-05

 Cycle  25  Pass 1  IDiag  1:
 E= -691.998696561992     Delta-E=       -0.000000000028 Rises=F Damp=F
 DIIS: error= 1.71D-08 at cycle  17 NSaved=  17.
 NSaved=17 IEnMin=17 EnMin= -691.998696561992     IErMin=17 ErrMin= 1.71D-08
 ErrMax= 1.71D-08  0.00D+00 EMaxC= 1.00D-01 BMatC= 1.23D-13 BMatP= 1.06D-12
 IDIUse=1 WtCom= 1.00D+00 WtEn= 0.00D+00
 Coeff-Com:  0.204D-03-0.106D-02-0.134D-02 0.147D-02 0.254D-02-0.125D-02
 Coeff-Com: -0.213D-02 0.166D-02 0.113D-01-0.115D-02-0.144D+00 0.118D+00
 Coeff-Com:  0.694D+00-0.452D+00-0.593D+00 0.472D+00 0.895D+00
 Coeff:      0.204D-03-0.106D-02-0.134D-02 0.147D-02 0.254D-02-0.125D-02
 Coeff:     -0.213D-02 0.166D-02 0.113D-01-0.115D-02-0.144D+00 0.118D+00
 Coeff:      0.694D+00-0.452D+00-0.593D+00 0.472D+00 0.895D+00
 Gap=     0.422 Goal=   None    Shift=    0.000
 Gap=     0.213 Goal=   None    Shift=    0.000
 RMSDP=1.80D-08 MaxDP=1.53D-06 DE=-2.80D-11 OVMax= 6.91D-06

 Cycle  26  Pass 1  IDiag  1:
 E= -691.998696561988     Delta-E=        0.000000000003 Rises=F Damp=F
 DIIS: error= 2.79D-09 at cycle  18 NSaved=  18.
 NSaved=18 IEnMin=17 EnMin= -691.998696561992     IErMin=18 ErrMin= 2.79D-09
 ErrMax= 2.79D-09  0.00D+00 EMaxC= 1.00D-01 BMatC= 9.31D-15 BMatP= 1.23D-13
 IDIUse=1 WtCom= 1.00D+00 WtEn= 0.00D+00
 Coeff-Com: -0.488D-04 0.247D-03 0.269D-03-0.258D-03-0.648D-03 0.253D-03
 Coeff-Com:  0.427D-03-0.113D-03-0.942D-03 0.172D-02 0.174D-01-0.354D-01
 Coeff-Com: -0.100D+00 0.208D+00-0.626D-01-0.123D+00 0.750D-01 0.102D+01
 Coeff:     -0.488D-04 0.247D-03 0.269D-03-0.258D-03-0.648D-03 0.253D-03
 Coeff:      0.427D-03-0.113D-03-0.942D-03 0.172D-02 0.174D-01-0.354D-01
 Coeff:     -0.100D+00 0.208D+00-0.626D-01-0.123D+00 0.750D-01 0.102D+01
 Gap=     0.422 Goal=   None    Shift=    0.000
 Gap=     0.213 Goal=   None    Shift=    0.000
 RMSDP=2.65D-09 MaxDP=2.33D-07 DE= 3.07D-12 OVMax= 9.29D-07

 SCF Done:  E(UB2PLYPD3) =  -691.998696562     A.U. after   26 cycles
            NFock= 26  Conv=0.27D-08     -V/T= 2.0027
 <Sx>= 0.0000 <Sy>= 0.0000 <Sz>= 0.5000 <S**2>= 0.7553 S= 0.5027
 <L.S>=  0.00000000000    
 KE= 6.901150570352D+02 PE=-2.192777456435D+03 EE= 5.320198335404D+02
 Annihilation of the first spin contaminant:
 S**2 before annihilation     0.7553,   after     0.7500
 Leave Link  502 at Tue Oct  8 13:12:34 2024, MaxMem=  2684354560 cpu:             283.5 elap:             105.8
 (Enter /gpfs/fs1/soft/bebop/software/custom-built/gaussian/16-c.02/g16/l508.exe)
 QCSCF skips out because SCF is already converged.
 Leave Link  508 at Tue Oct  8 13:12:35 2024, MaxMem=  2684354560 cpu:               0.0 elap:               0.0
 (Enter /gpfs/fs1/soft/bebop/software/custom-built/gaussian/16-c.02/g16/l801.exe)
 DoSCS=T DFT=T ScalE2(SS,OS)=  0.270000  0.270000
 ExpMin= 1.03D-01 ExpMax= 4.56D+05 ExpMxC= 1.44D+03 IAcc=3 IRadAn=         5 AccDes= 0.00D+00
 HarFok:  IExCor=  205 AccDes= 0.00D+00 IRadAn=         5 IDoV=-2 UseB2=F ITyADJ=14
 ICtDFT= 12500011 ScaDFX=  1.000000  1.000000  1.000000  1.000000
 Largest valence mixing into a core orbital is  1.86D-04
 Largest core mixing into a valence orbital is  7.42D-05
 Largest valence mixing into a core orbital is  1.96D-04
 Largest core mixing into a valence orbital is  6.90D-05
 Range of M.O.s used for correlation:    11   296
 NBasis=   296 NAE=    29 NBE=    28 NFC=    10 NFV=     0
 NROrb=    286 NOA=    19 NOB=    18 NVA=   267 NVB=   268

 **** Warning!!: The largest alpha MO coefficient is  0.11337363D+02


 **** Warning!!: The largest beta MO coefficient is  0.10851848D+02

 Leave Link  801 at Tue Oct  8 13:12:35 2024, MaxMem=  2684354560 cpu:               0.7 elap:               0.1
 (Enter /gpfs/fs1/soft/bebop/software/custom-built/gaussian/16-c.02/g16/l906.exe)
 DoSCS=T DFT=T ScalE2(SS,OS)=  0.270000  0.270000
 Frozen-core derivative calculation, NFC=  10 NFV=   0.
 FulOut=F Deriv=T AODrv=T NAtomX=    14
   MMem=          23  MDisk=          19 MDiskD=          19
  W3Min=     5734112 MinDsk=     4243203 NBas6D=         334
 NBas2D=       56620    NTT=       55945    LW2=     3500000
    MDV=  2682943483 MDiskM=       40133 NBas2p=       54283
 Fully direct method using O(ONN) memory.
 IMap=   1   2   3   4   5   6   7   8   9  10  11  12  13  14  15  16  17  18  19  20
 IMap=  21  22  23  24  25  26  27  28  29
 JobTyp=2 Pass  1:  I=  11 to  29 NPSUse=  6 ParTrn=T ParDer=T DoDerP=T.
 IMap=   1   2   3   4   5   6   7   8   9  10  11  12  13  14  15  16  17  18  19  20
 IMap=  21  22  23  24  25  26  27  28
 JobTyp=3 Pass  1:  I=  11 to  28 NPSUse=  6 ParTrn=T ParDer=T DoDerP=T.
 Spin components of T(2) and E(2):
     alpha-alpha T2 =       0.6592689653D-01 E2=     -0.4452224631D-01
     alpha-beta  T2 =       0.3728567348D+00 E2=     -0.2707364056D+00
     beta-beta   T2 =       0.6104852904D-01 E2=     -0.4069994574D-01
 The integrals were generated   2 times.
 (S**2,0)=  0.75531D+00           (S**2,1)=  0.74643D+00
 Scaling Projection term by:   0.270000
 E(PUHF)=      -0.69200140664D+03        E(PMP2)=      -0.69235477554D+03
 E2(B2PLYPD3) =    -0.3559585976D+00 E(B2PLYPD3) =    -0.69235465515963D+03
 Leave Link  906 at Tue Oct  8 13:14:42 2024, MaxMem=  2684354560 cpu:             758.7 elap:             126.8
 (Enter /gpfs/fs1/soft/bebop/software/custom-built/gaussian/16-c.02/g16/l1002.exe)
 Minotr:  UHF open shell wavefunction.
          Computing MP2/KS-MP2 derivatives.
          Using Z-Vector for PSCF gradient.
          Skipping F1 and S1 gradient terms here.
          IDoAtm=11111111111111
          Frozen-core window.
          Direct CPHF calculation.
          Differentiating once with respect to electric field.
                with respect to dipole field.
          Differentiating once with respect to nuclear coordinates.
          Requested convergence is 1.0D-10 RMS, and 1.0D-09 maximum.
          NewPWx=F KeepS1=T KeepF1=T KeepIn=T MapXYZ=F SortEE=F KeepMc=T.
 Keep R1 and R2 ints in memory in canonical form, NReq=1950975864.
 FoFCou: FMM=F IPFlag=           0 FMFlag=           0 FMFlg1=           0
         NFxFlg=           0 DoJE=F BraDBF=F KetDBF=F FulRan=T
         wScrn=  0.000000 ICntrl=       600 IOpCl=  0 I1Cent=           0 NGrid=           0
         NMat0=    1 NMatS0=  43956 NMatT0=    0 NMatD0=    1 NMtDS0=    0 NMtDT0=    0
 Symmetry not used in FoFCou.
 Two-electron integral symmetry not used.
          MDV=    2684354560 using IRadAn=       5.
          Solving linear equations separately, MaxMat=       0.
          There are     1 degrees of freedom in the 1st order CPHF.  IDoFFX=0 NUNeed=     1.
 LinEq1:  Iter=  0 NonCon=     1 RMS=7.43D-04 Max=5.95D-02 NDo=     1
 AX will form     1 AO Fock derivatives at one time.
 LinEq1:  Iter=  1 NonCon=     1 RMS=2.82D-04 Max=1.25D-02 NDo=     1
 LinEq1:  Iter=  2 NonCon=     1 RMS=1.71D-04 Max=1.01D-02 NDo=     1
 LinEq1:  Iter=  3 NonCon=     1 RMS=8.42D-05 Max=1.75D-03 NDo=     1
 LinEq1:  Iter=  4 NonCon=     1 RMS=3.51D-05 Max=1.96D-03 NDo=     1
 LinEq1:  Iter=  5 NonCon=     1 RMS=1.88D-05 Max=1.66D-03 NDo=     1
 LinEq1:  Iter=  6 NonCon=     1 RMS=8.92D-06 Max=4.31D-04 NDo=     1
 LinEq1:  Iter=  7 NonCon=     1 RMS=2.74D-06 Max=4.19D-05 NDo=     1
 LinEq1:  Iter=  8 NonCon=     1 RMS=1.46D-06 Max=2.21D-05 NDo=     1
 LinEq1:  Iter=  9 NonCon=     1 RMS=5.20D-07 Max=8.33D-06 NDo=     1
 LinEq1:  Iter= 10 NonCon=     1 RMS=1.85D-07 Max=3.77D-06 NDo=     1
 LinEq1:  Iter= 11 NonCon=     1 RMS=1.03D-07 Max=2.60D-06 NDo=     1
 LinEq1:  Iter= 12 NonCon=     1 RMS=3.25D-08 Max=5.22D-07 NDo=     1
 LinEq1:  Iter= 13 NonCon=     1 RMS=1.08D-08 Max=4.05D-07 NDo=     1
 LinEq1:  Iter= 14 NonCon=     1 RMS=4.59D-09 Max=3.15D-07 NDo=     1
 LinEq1:  Iter= 15 NonCon=     1 RMS=2.07D-09 Max=1.36D-07 NDo=     1
 LinEq1:  Iter= 16 NonCon=     1 RMS=8.76D-10 Max=3.22D-08 NDo=     1
 LinEq1:  Iter= 17 NonCon=     1 RMS=2.82D-10 Max=4.59D-09 NDo=     1
 LinEq1:  Iter= 18 NonCon=     1 RMS=1.05D-10 Max=1.41D-09 NDo=     1
 LinEq1:  Iter= 19 NonCon=     0 RMS=3.92D-11 Max=7.17D-10 NDo=     1
 Linear equations converged to 1.000D-10 1.000D-09 after    19 iterations.
 End of Minotr F.D. properties file   721 does not exist.
 End of Minotr F.D. properties file   722 does not exist.
 End of Minotr F.D. properties file   788 does not exist.
 Leave Link 1002 at Tue Oct  8 13:16:27 2024, MaxMem=  2684354560 cpu:             351.0 elap:             104.7
 (Enter /gpfs/fs1/soft/bebop/software/custom-built/gaussian/16-c.02/g16/l601.exe)
 Copying SCF densities to generalized density rwf, IOpCl= 1 IROHF=0.

 **********************************************************************

            Population analysis using the SCF Density.

 **********************************************************************

 Orbital symmetries:
 Alpha Orbitals:
       Occupied  (A) (A) (A) (A) (A) (A) (A) (A) (A) (A) (A) (A)
                 (A) (A) (A) (A) (A) (A) (A) (A) (A) (A) (A) (A)
                 (A) (A) (A) (A) (A)
       Virtual   (A) (A) (A) (A) (A) (A) (A) (A) (A) (A) (A) (A)
                 (A) (A) (A) (A) (A) (A) (A) (A) (A) (A) (A) (A)
                 (A) (A) (A) (A) (A) (A) (A) (A) (A) (A) (A) (A)
                 (A) (A) (A) (A) (A) (A) (A) (A) (A) (A) (A) (A)
                 (A) (A) (A) (A) (A) (A) (A) (A) (A) (A) (A) (A)
                 (A) (A) (A) (A) (A) (A) (A) (A) (A) (A) (A) (A)
                 (A) (A) (A) (A) (A) (A) (A) (A) (A) (A) (A) (A)
                 (A) (A) (A) (A) (A) (A) (A) (A) (A) (A) (A) (A)
                 (A) (A) (A) (A) (A) (A) (A) (A) (A) (A) (A) (A)
                 (A) (A) (A) (A) (A) (A) (A) (A) (A) (A) (A) (A)
                 (A) (A) (A) (A) (A) (A) (A) (A) (A) (A) (A) (A)
                 (A) (A) (A) (A) (A) (A) (A) (A) (A) (A) (A) (A)
                 (A) (A) (A) (A) (A) (A) (A) (A) (A) (A) (A) (A)
                 (A) (A) (A) (A) (A) (A) (A) (A) (A) (A) (A) (A)
                 (A) (A) (A) (A) (A) (A) (A) (A) (A) (A) (A) (A)
                 (A) (A) (A) (A) (A) (A) (A) (A) (A) (A) (A) (A)
                 (A) (A) (A) (A) (A) (A) (A) (A) (A) (A) (A) (A)
                 (A) (A) (A) (A) (A) (A) (A) (A) (A) (A) (A) (A)
                 (A) (A) (A) (A) (A) (A) (A) (A) (A) (A) (A) (A)
                 (A) (A) (A) (A) (A) (A) (A) (A) (A) (A) (A) (A)
                 (A) (A) (A) (A) (A) (A) (A) (A) (A) (A) (A) (A)
                 (A) (A) (A) (A) (A) (A) (A) (A) (A) (A) (A) (A)
                 (A) (A) (A)
 Beta  Orbitals:
       Occupied  (A) (A) (A) (A) (A) (A) (A) (A) (A) (A) (A) (A)
                 (A) (A) (A) (A) (A) (A) (A) (A) (A) (A) (A) (A)
                 (A) (A) (A) (A)
       Virtual   (A) (A) (A) (A) (A) (A) (A) (A) (A) (A) (A) (A)
                 (A) (A) (A) (A) (A) (A) (A) (A) (A) (A) (A) (A)
                 (A) (A) (A) (A) (A) (A) (A) (A) (A) (A) (A) (A)
                 (A) (A) (A) (A) (A) (A) (A) (A) (A) (A) (A) (A)
                 (A) (A) (A) (A) (A) (A) (A) (A) (A) (A) (A) (A)
                 (A) (A) (A) (A) (A) (A) (A) (A) (A) (A) (A) (A)
                 (A) (A) (A) (A) (A) (A) (A) (A) (A) (A) (A) (A)
                 (A) (A) (A) (A) (A) (A) (A) (A) (A) (A) (A) (A)
                 (A) (A) (A) (A) (A) (A) (A) (A) (A) (A) (A) (A)
                 (A) (A) (A) (A) (A) (A) (A) (A) (A) (A) (A) (A)
                 (A) (A) (A) (A) (A) (A) (A) (A) (A) (A) (A) (A)
                 (A) (A) (A) (A) (A) (A) (A) (A) (A) (A) (A) (A)
                 (A) (A) (A) (A) (A) (A) (A) (A) (A) (A) (A) (A)
                 (A) (A) (A) (A) (A) (A) (A) (A) (A) (A) (A) (A)
                 (A) (A) (A) (A) (A) (A) (A) (A) (A) (A) (A) (A)
                 (A) (A) (A) (A) (A) (A) (A) (A) (A) (A) (A) (A)
                 (A) (A) (A) (A) (A) (A) (A) (A) (A) (A) (A) (A)
                 (A) (A) (A) (A) (A) (A) (A) (A) (A) (A) (A) (A)
                 (A) (A) (A) (A) (A) (A) (A) (A) (A) (A) (A) (A)
                 (A) (A) (A) (A) (A) (A) (A) (A) (A) (A) (A) (A)
                 (A) (A) (A) (A) (A) (A) (A) (A) (A) (A) (A) (A)
                 (A) (A) (A) (A) (A) (A) (A) (A) (A) (A) (A) (A)
                 (A) (A) (A) (A)
 The electronic state is 2-A.
 Alpha  occ. eigenvalues -- -102.95450 -19.74113 -10.67797 -10.67434 -10.61823
 Alpha  occ. eigenvalues --  -10.61518  -9.94064  -7.59461  -7.57165  -7.57165
 Alpha  occ. eigenvalues --   -1.21785  -0.94192  -0.86823  -0.85549  -0.73775
 Alpha  occ. eigenvalues --   -0.66437  -0.60104  -0.52913  -0.50971  -0.49742
 Alpha  occ. eigenvalues --   -0.47267  -0.46668  -0.45017  -0.42569  -0.41825
 Alpha  occ. eigenvalues --   -0.39290  -0.39220  -0.36076  -0.34481
 Alpha virt. eigenvalues --    0.07748   0.09983   0.10841   0.13987   0.14462
 Alpha virt. eigenvalues --    0.14711   0.15481   0.17980   0.18576   0.21284
 Alpha virt. eigenvalues --    0.21694   0.25312   0.27539   0.29433   0.31464
 Alpha virt. eigenvalues --    0.34145   0.36125   0.38241   0.39651   0.41010
 Alpha virt. eigenvalues --    0.41465   0.42089   0.43464   0.44720   0.46040
 Alpha virt. eigenvalues --    0.47089   0.47662   0.49253   0.49651   0.50958
 Alpha virt. eigenvalues --    0.51054   0.51632   0.52745   0.53109   0.53965
 Alpha virt. eigenvalues --    0.54717   0.55856   0.56530   0.57186   0.58592
 Alpha virt. eigenvalues --    0.60823   0.62340   0.65130   0.66716   0.68408
 Alpha virt. eigenvalues --    0.72672   0.78066   0.79116   0.82732   0.85500
 Alpha virt. eigenvalues --    0.87784   0.89313   0.90039   0.92938   0.97291
 Alpha virt. eigenvalues --    1.00223   1.01421   1.03172   1.04069   1.05814
 Alpha virt. eigenvalues --    1.07600   1.09041   1.10266   1.12918   1.14158
 Alpha virt. eigenvalues --    1.16024   1.19847   1.20867   1.22682   1.23183
 Alpha virt. eigenvalues --    1.24085   1.30355   1.32213   1.33310   1.34672
 Alpha virt. eigenvalues --    1.36992   1.37756   1.39536   1.40677   1.41149
 Alpha virt. eigenvalues --    1.45356   1.45812   1.48436   1.49000   1.51112
 Alpha virt. eigenvalues --    1.53264   1.57106   1.61301   1.63012   1.65593
 Alpha virt. eigenvalues --    1.69460   1.80023   1.84442   1.86186   1.96079
 Alpha virt. eigenvalues --    2.01021   2.02115   2.04178   2.05870   2.06902
 Alpha virt. eigenvalues --    2.08357   2.11625   2.15804   2.16829   2.18662
 Alpha virt. eigenvalues --    2.19400   2.20309   2.21515   2.22158   2.22713
 Alpha virt. eigenvalues --    2.27518   2.28843   2.33990   2.35272   2.35977
 Alpha virt. eigenvalues --    2.36937   2.38890   2.43245   2.43825   2.46786
 Alpha virt. eigenvalues --    2.50552   2.53817   2.55256   2.58758   2.62295
 Alpha virt. eigenvalues --    2.70175   2.73182   2.74642   2.76564   2.79780
 Alpha virt. eigenvalues --    2.82096   2.85734   2.87969   2.89088   2.89759
 Alpha virt. eigenvalues --    2.90406   2.93944   2.94515   2.97051   2.98972
 Alpha virt. eigenvalues --    3.02602   3.03660   3.04632   3.06497   3.08770
 Alpha virt. eigenvalues --    3.11520   3.12932   3.16543   3.17776   3.18193
 Alpha virt. eigenvalues --    3.19372   3.23367   3.24082   3.24695   3.27047
 Alpha virt. eigenvalues --    3.31153   3.34555   3.35870   3.36302   3.41385
 Alpha virt. eigenvalues --    3.42710   3.44739   3.46406   3.49690   3.50893
 Alpha virt. eigenvalues --    3.53644   3.53934   3.54951   3.57582   3.60032
 Alpha virt. eigenvalues --    3.61864   3.62337   3.64119   3.69730   3.72808
 Alpha virt. eigenvalues --    3.77010   3.79316   3.80208   3.81910   3.87145
 Alpha virt. eigenvalues --    3.88802   3.90298   3.93213   3.93900   3.96206
 Alpha virt. eigenvalues --    3.96703   3.99944   4.02470   4.05240   4.06114
 Alpha virt. eigenvalues --    4.08575   4.09394   4.12702   4.14408   4.16938
 Alpha virt. eigenvalues --    4.17386   4.20838   4.22405   4.23546   4.24381
 Alpha virt. eigenvalues --    4.28465   4.29505   4.37130   4.38766   4.40418
 Alpha virt. eigenvalues --    4.41399   4.42519   4.44327   4.49272   4.49571
 Alpha virt. eigenvalues --    4.52899   4.56060   4.57382   4.65156   4.67175
 Alpha virt. eigenvalues --    4.67888   4.81560   4.82186   4.91006   4.93878
 Alpha virt. eigenvalues --    4.94734   4.97669   5.02863   5.04789   5.06777
 Alpha virt. eigenvalues --    5.07213   5.11648   5.15914   5.22148   5.22943
 Alpha virt. eigenvalues --    5.27332   5.28534   5.29140   5.30585   5.38571
 Alpha virt. eigenvalues --    5.40812   5.44503   5.48678   5.50193   5.50899
 Alpha virt. eigenvalues --    5.52462   5.57076   5.60181   5.64486   5.65507
 Alpha virt. eigenvalues --    5.77691   5.79952   5.91989   5.93908   5.95700
 Alpha virt. eigenvalues --    6.00035   6.07296   6.10257   6.11940   6.19865
 Alpha virt. eigenvalues --    6.25675   6.66476   6.86044   7.02980   7.11554
 Alpha virt. eigenvalues --    7.22155   7.53672  11.05885  11.27183  12.90221
 Alpha virt. eigenvalues --   13.37926  14.18926
  Beta  occ. eigenvalues -- -102.94594 -19.73933 -10.67786 -10.67439 -10.61818
  Beta  occ. eigenvalues --  -10.61518  -9.93228  -7.56709  -7.56709  -7.56157
  Beta  occ. eigenvalues --   -1.21492  -0.86867  -0.86238  -0.85484  -0.73664
  Beta  occ. eigenvalues --   -0.66366  -0.59764  -0.52840  -0.50839  -0.49580
  Beta  occ. eigenvalues --   -0.46940  -0.46658  -0.42926  -0.41803  -0.37648
  Beta  occ. eigenvalues --   -0.37507  -0.35867  -0.34220
  Beta virt. eigenvalues --   -0.12916   0.07769   0.10008   0.10864   0.14002
  Beta virt. eigenvalues --    0.14490   0.14744   0.15529   0.18114   0.18732
  Beta virt. eigenvalues --    0.21292   0.21713   0.25349   0.27575   0.29466
  Beta virt. eigenvalues --    0.31483   0.34253   0.36543   0.39488   0.40269
  Beta virt. eigenvalues --    0.41644   0.42264   0.43143   0.44571   0.45807
  Beta virt. eigenvalues --    0.47492   0.48178   0.49007   0.49987   0.50497
  Beta virt. eigenvalues --    0.51599   0.52341   0.52828   0.52835   0.54450
  Beta virt. eigenvalues --    0.55245   0.55979   0.56693   0.57454   0.58505
  Beta virt. eigenvalues --    0.59135   0.61226   0.62582   0.65549   0.66984
  Beta virt. eigenvalues --    0.69117   0.73160   0.78428   0.79174   0.82853
  Beta virt. eigenvalues --    0.85943   0.87902   0.89320   0.90207   0.93069
  Beta virt. eigenvalues --    0.97374   1.00433   1.01757   1.03359   1.04101
  Beta virt. eigenvalues --    1.05858   1.07653   1.09117   1.10295   1.13382
  Beta virt. eigenvalues --    1.14304   1.16160   1.19901   1.20914   1.22731
  Beta virt. eigenvalues --    1.23192   1.24156   1.30371   1.32222   1.33351
  Beta virt. eigenvalues --    1.34733   1.37038   1.37810   1.39553   1.40693
  Beta virt. eigenvalues --    1.41220   1.45399   1.45880   1.48448   1.49020
  Beta virt. eigenvalues --    1.51125   1.53274   1.57121   1.61322   1.63038
  Beta virt. eigenvalues --    1.65628   1.69523   1.80067   1.84515   1.86356
  Beta virt. eigenvalues --    1.96429   2.02972   2.03879   2.04805   2.07398
  Beta virt. eigenvalues --    2.09216   2.10659   2.14239   2.18381   2.19974
  Beta virt. eigenvalues --    2.22183   2.22195   2.22546   2.22631   2.23423
  Beta virt. eigenvalues --    2.24846   2.28185   2.30857   2.35823   2.36128
  Beta virt. eigenvalues --    2.37100   2.37689   2.40847   2.43706   2.44350
  Beta virt. eigenvalues --    2.46855   2.50776   2.53997   2.55360   2.58811
  Beta virt. eigenvalues --    2.62365   2.70299   2.73323   2.74671   2.76591
  Beta virt. eigenvalues --    2.79825   2.82119   2.85756   2.88015   2.89139
  Beta virt. eigenvalues --    2.89773   2.90439   2.93954   2.94522   2.97066
  Beta virt. eigenvalues --    2.99007   3.02616   3.03681   3.04651   3.06519
  Beta virt. eigenvalues --    3.08836   3.11533   3.12941   3.16552   3.17799
  Beta virt. eigenvalues --    3.18214   3.19384   3.23384   3.24087   3.24705
  Beta virt. eigenvalues --    3.27089   3.31176   3.34572   3.35889   3.36309
  Beta virt. eigenvalues --    3.41392   3.42750   3.44751   3.46432   3.49716
  Beta virt. eigenvalues --    3.50901   3.53658   3.53949   3.54970   3.57606
  Beta virt. eigenvalues --    3.60038   3.61872   3.62345   3.64132   3.69757
  Beta virt. eigenvalues --    3.72822   3.77025   3.79372   3.80225   3.81918
  Beta virt. eigenvalues --    3.87151   3.88806   3.90306   3.93229   3.93904
  Beta virt. eigenvalues --    3.96228   3.96708   3.99962   4.02475   4.05254
  Beta virt. eigenvalues --    4.06122   4.08605   4.09412   4.12718   4.14415
  Beta virt. eigenvalues --    4.16953   4.17401   4.20848   4.22415   4.23554
  Beta virt. eigenvalues --    4.24409   4.28474   4.29510   4.37145   4.38873
  Beta virt. eigenvalues --    4.40440   4.41424   4.42539   4.44383   4.49335
  Beta virt. eigenvalues --    4.49605   4.52916   4.56942   4.57479   4.65406
  Beta virt. eigenvalues --    4.67203   4.67945   4.81589   4.82207   4.91017
  Beta virt. eigenvalues --    4.93897   4.94771   4.97682   5.02879   5.04801
  Beta virt. eigenvalues --    5.06793   5.07229   5.11701   5.15931   5.22169
  Beta virt. eigenvalues --    5.22977   5.27340   5.28544   5.29164   5.30606
  Beta virt. eigenvalues --    5.38657   5.40822   5.44524   5.48687   5.50199
  Beta virt. eigenvalues --    5.50919   5.52468   5.57188   5.60199   5.64511
  Beta virt. eigenvalues --    5.65535   5.77804   5.79984   5.92010   5.93965
  Beta virt. eigenvalues --    5.95727   6.00051   6.07440   6.10350   6.11957
  Beta virt. eigenvalues --    6.20004   6.25790   6.66568   6.86353   7.03307
  Beta virt. eigenvalues --    7.11866   7.22417   7.53877  11.06047  11.27191
  Beta virt. eigenvalues --   12.90226  13.37929  14.18928
          Condensed to atoms (all electrons):
               1          2          3          4          5          6
     1  C    4.747840   0.353501   0.355342   0.425614   0.211996  -0.034396
     2  C    0.353501   4.836652  -0.034989  -0.049008  -0.025049  -0.002813
     3  C    0.355342  -0.034989   4.805924  -0.031317   0.195374   0.347740
     4  H    0.425614  -0.049008  -0.031317   0.567167  -0.024015   0.001765
     5  O    0.211996  -0.025049   0.195374  -0.024015   8.065282  -0.022636
     6  C   -0.034396  -0.002813   0.347740   0.001765  -0.022636   4.821414
     7  H   -0.038371   0.000144   0.432048   0.000075  -0.033063  -0.045743
     8  H   -0.033272   0.406214  -0.001317   0.005759   0.003399  -0.003211
     9  H   -0.037408   0.392770  -0.001094   0.001350   0.004442  -0.000767
    10  H   -0.034866   0.412637   0.006881  -0.006644  -0.003045   0.000090
    11  H    0.007271   0.000122  -0.032559  -0.000327  -0.003880   0.409745
    12  H   -0.000500  -0.001186  -0.041633   0.000600   0.004663   0.397804
    13  H   -0.002445  -0.003457  -0.035426   0.000190   0.003125   0.408670
    14  Cl   0.001298  -0.000048  -0.012766   0.000025   0.003512  -0.000929
               7          8          9         10         11         12
     1  C   -0.038371  -0.033272  -0.037408  -0.034866   0.007271  -0.000500
     2  C    0.000144   0.406214   0.392770   0.412637   0.000122  -0.001186
     3  C    0.432048  -0.001317  -0.001094   0.006881  -0.032559  -0.041633
     4  H    0.000075   0.005759   0.001350  -0.006644  -0.000327   0.000600
     5  O   -0.033063   0.003399   0.004442  -0.003045  -0.003880   0.004663
     6  C   -0.045743  -0.003211  -0.000767   0.000090   0.409745   0.397804
     7  H    0.552259   0.000178   0.000775  -0.000291  -0.005911   0.001429
     8  H    0.000178   0.573362  -0.026842  -0.028989  -0.000228   0.000809
     9  H    0.000775  -0.026842   0.602762  -0.030077  -0.000074   0.000126
    10  H   -0.000291  -0.028989  -0.030077   0.575199   0.000080  -0.000083
    11  H   -0.005911  -0.000228  -0.000074   0.000080   0.569145  -0.029817
    12  H    0.001429   0.000809   0.000126  -0.000083  -0.029817   0.603861
    13  H    0.005878   0.001118   0.000775  -0.000266  -0.028770  -0.027939
    14  Cl   0.002314  -0.000016  -0.000002   0.000013   0.002921  -0.000058
              13         14
     1  C   -0.002445   0.001298
     2  C   -0.003457  -0.000048
     3  C   -0.035426  -0.012766
     4  H    0.000190   0.000025
     5  O    0.003125   0.003512
     6  C    0.408670  -0.000929
     7  H    0.005878   0.002314
     8  H    0.001118  -0.000016
     9  H    0.000775  -0.000002
    10  H   -0.000266   0.000013
    11  H   -0.028770   0.002921
    12  H   -0.027939  -0.000058
    13  H    0.579868  -0.000058
    14  Cl  -0.000058  17.033313
          Atomic-Atomic Spin Densities.
               1          2          3          4          5          6
     1  C    0.003881  -0.000901   0.001241   0.000034   0.001385  -0.000622
     2  C   -0.000901   0.002958   0.000360  -0.000431  -0.000246  -0.000206
     3  C    0.001241   0.000360  -0.004163  -0.000185  -0.001260   0.000206
     4  H    0.000034  -0.000431  -0.000185   0.000969  -0.000632   0.000059
     5  O    0.001385  -0.000246  -0.001260  -0.000632   0.047561   0.000515
     6  C   -0.000622  -0.000206   0.000206   0.000059   0.000515  -0.001516
     7  H    0.000169   0.000095   0.001654   0.000005   0.000149   0.000672
     8  H    0.000022   0.000177   0.000010  -0.000006  -0.000134   0.000038
     9  H   -0.000081   0.000022  -0.000152   0.000149  -0.000014   0.000061
    10  H   -0.000030   0.000077   0.000012  -0.000024   0.000082  -0.000012
    11  H   -0.000133   0.000008   0.000335   0.000000   0.000113   0.000198
    12  H   -0.000002  -0.000003  -0.000190   0.000007  -0.000023   0.000073
    13  H    0.000154   0.000014  -0.000075   0.000002  -0.000173   0.000144
    14  Cl  -0.000722  -0.000176   0.000581   0.000457  -0.022682   0.000214
               7          8          9         10         11         12
     1  C    0.000169   0.000022  -0.000081  -0.000030  -0.000133  -0.000002
     2  C    0.000095   0.000177   0.000022   0.000077   0.000008  -0.000003
     3  C    0.001654   0.000010  -0.000152   0.000012   0.000335  -0.000190
     4  H    0.000005  -0.000006   0.000149  -0.000024   0.000000   0.000007
     5  O    0.000149  -0.000134  -0.000014   0.000082   0.000113  -0.000023
     6  C    0.000672   0.000038   0.000061  -0.000012   0.000198   0.000073
     7  H   -0.002365  -0.000005  -0.000016   0.000003   0.000021   0.000027
     8  H   -0.000005  -0.000209  -0.000046   0.000048   0.000003  -0.000002
     9  H   -0.000016  -0.000046   0.001034   0.000014   0.000000   0.000010
    10  H    0.000003   0.000048   0.000014  -0.000283  -0.000001   0.000000
    11  H    0.000021   0.000003   0.000000  -0.000001  -0.000333  -0.000018
    12  H    0.000027  -0.000002   0.000010   0.000000  -0.000018   0.000296
    13  H   -0.000034  -0.000029  -0.000009   0.000005   0.000085  -0.000013
    14  Cl  -0.001157   0.000005   0.000010  -0.000010  -0.000722   0.000047
              13         14
     1  C    0.000154  -0.000722
     2  C    0.000014  -0.000176
     3  C   -0.000075   0.000581
     4  H    0.000002   0.000457
     5  O   -0.000173  -0.022682
     6  C    0.000144   0.000214
     7  H   -0.000034  -0.001157
     8  H   -0.000029   0.000005
     9  H   -0.000009   0.000010
    10  H    0.000005  -0.000010
    11  H    0.000085  -0.000722
    12  H   -0.000013   0.000047
    13  H   -0.000152   0.000054
    14  Cl   0.000054   0.995023
 Mulliken charges and spin densities:
               1          2
     1  C    0.078397   0.004396
     2  C   -0.285489   0.001746
     3  C    0.047793  -0.001627
     4  H    0.108766   0.000404
     5  O   -0.380105   0.024642
     6  C   -0.276731  -0.000176
     7  H    0.128279  -0.000782
     8  H    0.103035  -0.000126
     9  H    0.093265   0.000981
    10  H    0.109361  -0.000119
    11  H    0.112284  -0.000445
    12  H    0.091924   0.000210
    13  H    0.098739  -0.000027
    14  Cl  -0.029518   0.970921
 Sum of Mulliken charges =  -0.00000   1.00000
 Mulliken charges and spin densities with hydrogens summed into heavy atoms:
               1          2
     1  C    0.187163   0.004800
     2  C    0.020173   0.002482
     3  C    0.176071  -0.002409
     5  O   -0.380105   0.024642
     6  C    0.026216  -0.000438
    14  Cl  -0.029518   0.970921
 Electronic spatial extent (au):  <R**2>=           1069.1375
 Charge=             -0.0000 electrons
 Dipole moment (field-independent basis, Debye):
    X=              2.1393    Y=              0.8826    Z=              1.2310  Tot=              2.6212
 Quadrupole moment (field-independent basis, Debye-Ang):
   XX=            -42.0372   YY=            -43.1379   ZZ=            -44.3120
   XY=             -1.8509   XZ=             -0.4224   YZ=             -0.7746
 Traceless Quadrupole moment (field-independent basis, Debye-Ang):
   XX=              1.1252   YY=              0.0245   ZZ=             -1.1496
   XY=             -1.8509   XZ=             -0.4224   YZ=             -0.7746
 Octapole moment (field-independent basis, Debye-Ang**2):
  XXX=            -11.5450  YYY=             -3.5820  ZZZ=             -0.1085  XYY=              0.0381
  XXY=             -0.3534  XXZ=              0.6370  XZZ=             -1.4455  YZZ=             -0.8088
  YYZ=              0.4520  XYZ=             -0.4909
 Hexadecapole moment (field-independent basis, Debye-Ang**3):
 XXXX=           -966.7180 YYYY=           -298.1031 ZZZZ=            -98.9608 XXXY=            -10.1310
 XXXZ=             -2.9674 YYYX=             -2.9504 YYYZ=              2.4748 ZZZX=             -1.0992
 ZZZY=             -0.6723 XXYY=           -220.2002 XXZZ=           -186.7155 YYZZ=            -64.4923
 XXYZ=             -0.0563 YYXZ=              1.1043 ZZXY=              0.5562
 N-N= 2.786438692978D+02 E-N=-2.192777456504D+03  KE= 6.901150570352D+02
                          Isotropic Fermi Contact Couplings
        Atom                 a.u.       MegaHertz       Gauss      10(-4) cm-1
     1  C(13)             -0.00046      -0.51362      -0.18327      -0.17133
     2  C(13)              0.00165       1.85861       0.66320       0.61997
     3  C(13)             -0.00012      -0.12942      -0.04618      -0.04317
     4  H(1)               0.00030       1.31962       0.47087       0.44018
     5  O(17)              0.06412     -38.87010     -13.86982     -12.96567
     6  C(13)              0.00012       0.13470       0.04806       0.04493
     7  H(1)               0.00003       0.14623       0.05218       0.04878
     8  H(1)              -0.00006      -0.25228      -0.09002      -0.08415
     9  H(1)               0.00078       3.48317       1.24288       1.16186
    10  H(1)              -0.00002      -0.07192      -0.02566      -0.02399
    11  H(1)               0.00006       0.28724       0.10249       0.09581
    12  H(1)               0.00015       0.65811       0.23483       0.21952
    13  H(1)              -0.00002      -0.09922      -0.03540      -0.03310
    14  Cl(35)             0.15691      68.80109      24.54994      22.94957
 --------------------------------------------------------
       Center         ----  Spin Dipole Couplings  ----
                      3XX-RR        3YY-RR        3ZZ-RR
 --------------------------------------------------------
     1   Atom        0.012868     -0.007610     -0.005258
     2   Atom        0.007721     -0.003844     -0.003877
     3   Atom        0.004997     -0.000214     -0.004783
     4   Atom        0.002259     -0.002316      0.000057
     5   Atom        0.173340     -0.105067     -0.068273
     6   Atom        0.002244      0.000601     -0.002844
     7   Atom        0.003680     -0.003308     -0.000372
     8   Atom        0.002254     -0.001373     -0.000881
     9   Atom        0.001587     -0.001106     -0.000480
    10   Atom        0.001783     -0.000570     -0.001213
    11   Atom        0.000690      0.002424     -0.003114
    12   Atom        0.000935      0.000324     -0.001259
    13   Atom        0.001650     -0.000062     -0.001588
    14   Atom        4.801015     -2.178970     -2.622044
 --------------------------------------------------------
                        XY            XZ            YZ
 --------------------------------------------------------
     1   Atom        0.004942      0.010366      0.002929
     2   Atom       -0.000597     -0.001267      0.000000
     3   Atom        0.004237      0.002634      0.002000
     4   Atom       -0.002010      0.002947     -0.001756
     5   Atom        0.075596     -0.130469     -0.030745
     6   Atom        0.003728      0.000084      0.000376
     7   Atom        0.003811      0.006758      0.004113
     8   Atom        0.000452     -0.001019     -0.000418
     9   Atom       -0.000010      0.000538      0.000171
    10   Atom       -0.001208     -0.000474      0.000420
    11   Atom        0.003878     -0.000618     -0.000763
    12   Atom        0.001822      0.000455      0.000481
    13   Atom        0.002042     -0.000847     -0.000623
    14   Atom       -2.222732     -1.244936      0.364945
 --------------------------------------------------------


 ---------------------------------------------------------------------------------
              Anisotropic Spin Dipole Couplings in Principal Axis System
 ---------------------------------------------------------------------------------

       Atom             a.u.   MegaHertz   Gauss  10(-4) cm-1        Axes

              Baa    -0.0102    -1.373    -0.490    -0.458 -0.3048 -0.3940  0.8671
     1 C(13)  Bbb    -0.0086    -1.151    -0.411    -0.384 -0.3441  0.8945  0.2855
              Bcc     0.0188     2.524     0.901     0.842  0.8881  0.2114  0.4082
 
              Baa    -0.0040    -0.542    -0.193    -0.181  0.1180  0.3618  0.9248
     2 C(13)  Bbb    -0.0038    -0.516    -0.184    -0.172  0.0081  0.9309 -0.3652
              Bcc     0.0079     1.058     0.378     0.353  0.9930 -0.0506 -0.1070
 
              Baa    -0.0057    -0.761    -0.272    -0.254 -0.1407 -0.2425  0.9599
     3 C(13)  Bbb    -0.0025    -0.338    -0.121    -0.113 -0.5223  0.8419  0.1361
              Bcc     0.0082     1.099     0.392     0.367  0.8411  0.4822  0.2451
 
              Baa    -0.0033    -1.764    -0.630    -0.588  0.1459  0.9237  0.3543
     4 H(1)   Bbb    -0.0019    -1.030    -0.367    -0.344 -0.6246 -0.1917  0.7571
              Bcc     0.0052     2.794     0.997     0.932  0.7672 -0.3318  0.5489
 
              Baa    -0.1267     9.170     3.272     3.059  0.4446 -0.5648  0.6952
     5 O(17)  Bbb    -0.1224     8.857     3.161     2.954  0.0637  0.7941  0.6044
              Bcc     0.2491   -18.027    -6.433    -6.013  0.8935  0.2245 -0.3890
 
              Baa    -0.0030    -0.397    -0.142    -0.132  0.2199 -0.3275  0.9189
     6 C(13)  Bbb    -0.0023    -0.308    -0.110    -0.103 -0.5882  0.7069  0.3928
              Bcc     0.0053     0.705     0.251     0.235  0.7782  0.6269  0.0372
 
              Baa    -0.0064    -3.407    -1.216    -1.137 -0.2204 -0.6718  0.7071
     7 H(1)   Bbb    -0.0045    -2.389    -0.852    -0.797 -0.6432  0.6451  0.4125
              Bcc     0.0109     5.796     2.068     1.933  0.7333  0.3639  0.5743
 
              Baa    -0.0016    -0.863    -0.308    -0.288  0.0432  0.8419  0.5379
     8 H(1)   Bbb    -0.0010    -0.542    -0.193    -0.181  0.3186 -0.5219  0.7913
              Bcc     0.0026     1.405     0.501     0.469  0.9469  0.1372 -0.2908
 
              Baa    -0.0012    -0.618    -0.221    -0.206  0.0601  0.9554 -0.2890
     9 H(1)   Bbb    -0.0006    -0.299    -0.107    -0.100 -0.2310  0.2950  0.9271
              Bcc     0.0017     0.917     0.327     0.306  0.9711  0.0110  0.2385
 
              Baa    -0.0014    -0.762    -0.272    -0.254 -0.0669 -0.5133  0.8556
    10 H(1)   Bbb    -0.0010    -0.515    -0.184    -0.172  0.4203  0.7633  0.4907
              Bcc     0.0024     1.277     0.456     0.426  0.9049 -0.3924 -0.1647
 
              Baa    -0.0032    -1.720    -0.614    -0.574  0.0752  0.0825  0.9937
    11 H(1)   Bbb    -0.0024    -1.289    -0.460    -0.430  0.7799 -0.6259 -0.0070
              Bcc     0.0056     3.010     1.074     1.004  0.6214  0.7755 -0.1114
 
              Baa    -0.0014    -0.747    -0.267    -0.249  0.1183 -0.3808  0.9171
    12 H(1)   Bbb    -0.0012    -0.635    -0.227    -0.212 -0.6504  0.6681  0.3614
              Bcc     0.0026     1.382     0.493     0.461  0.7503  0.6392  0.1686
 
              Baa    -0.0018    -0.972    -0.347    -0.324  0.1094  0.2162  0.9702
    13 H(1)   Bbb    -0.0014    -0.755    -0.269    -0.252 -0.5729  0.8114 -0.1162
              Bcc     0.0032     1.727     0.616     0.576  0.8123  0.5431 -0.2126
 
              Baa    -2.8282  -148.022   -52.818   -49.375  0.1355  0.7958 -0.5903
    14 Cl(35) Bbb    -2.8239  -147.797   -52.738   -49.300  0.2864  0.5389  0.7922
              Bcc     5.6521   295.819   105.556    98.675  0.9485 -0.2764 -0.1549
 

 ---------------------------------------------------------------------------------

 No NMR shielding tensors so no spin-rotation constants.
 Leave Link  601 at Tue Oct  8 13:16:27 2024, MaxMem=  2684354560 cpu:               1.3 elap:               0.2
 (Enter /gpfs/fs1/soft/bebop/software/custom-built/gaussian/16-c.02/g16/l701.exe)
 ... and contract with generalized density number  2.
 Compute integral first derivatives.
 R6Disp: Adding Grimme-D3(BJ) dispersion energy 1st derivatives to the gradient.
 Leave Link  701 at Tue Oct  8 13:16:27 2024, MaxMem=  2684354560 cpu:               0.8 elap:               0.2
 (Enter /gpfs/fs1/soft/bebop/software/custom-built/gaussian/16-c.02/g16/l702.exe)
 L702 exits ... SP integral derivatives will be done elsewhere.
 Leave Link  702 at Tue Oct  8 13:16:28 2024, MaxMem=  2684354560 cpu:               0.1 elap:               0.0
 (Enter /gpfs/fs1/soft/bebop/software/custom-built/gaussian/16-c.02/g16/l703.exe)
 Integral derivatives from FoFJK, PRISM(SPDF).
 Compute integral first derivatives, UseDBF=F ICtDFT=           0.
 Calling FoFJK, ICntrl=  10002127 FMM=F ISym2X=0 I1Cent= 0 IOpClX= 1 NMat=1 NMatS=1 NMatT=0.
 FoFJK:  IHMeth= 1 ICntrl=10002127 DoSepK=F KAlg= 0 I1Cent=           0 FoldK=F
 IRaf=         0 NMat=       1 IRICut=       1 DoRegI=T DoRafI=F ISym2E= 0 IDoP0=0 IntGTp=1.
 FoFCou: FMM=F IPFlag=           0 FMFlag=      100000 FMFlg1=         800
         NFxFlg=           0 DoJE=F BraDBF=F KetDBF=F FulRan=T
         wScrn=  0.000000 ICntrl=  10002127 IOpCl=  1 I1Cent=           0 NGrid=           0
         NMat0=    1 NMatS0=      1 NMatT0=    0 NMatD0=    1 NMtDS0=    0 NMtDT0=    0
 Symmetry not used in FoFCou.
 Leave Link  703 at Tue Oct  8 13:16:44 2024, MaxMem=  2684354560 cpu:              99.6 elap:              16.7
 (Enter /gpfs/fs1/soft/bebop/software/custom-built/gaussian/16-c.02/g16/l716.exe)
 Dipole        = 9.07701780D-01 3.28529925D-01 4.49899536D-01
 ***** Axes restored to original set *****
 -------------------------------------------------------------------
 Center     Atomic                   Forces (Hartrees/Bohr)
 Number     Number              X              Y              Z
 -------------------------------------------------------------------
      1        6          -0.002410368    0.004007138    0.003663360
      2        6           0.000206654   -0.001235456   -0.000412461
      3        6           0.004194880    0.006363143   -0.000120101
      4        1           0.002945412   -0.001705506    0.001166053
      5        8          -0.000281968   -0.007206683   -0.005301421
      6        6           0.000912708   -0.000172134    0.001538492
      7        1           0.000051814   -0.002305344    0.002827831
      8        1          -0.002939487    0.002049952   -0.001731921
      9        1           0.000136135   -0.002808959   -0.001865148
     10        1           0.002608204    0.002090249   -0.000581903
     11        1          -0.002072830    0.001525118    0.002397469
     12        1          -0.001004991   -0.002869219   -0.001079665
     13        1          -0.000293172    0.002521594   -0.002976515
     14       17          -0.002052991   -0.000253892    0.002475931
 -------------------------------------------------------------------
 Cartesian Forces:  Max     0.007206683 RMS     0.002636594
 Z-matrix is all fixed cartesians, so copy forces.
 Leave Link  716 at Tue Oct  8 13:16:45 2024, MaxMem=  2684354560 cpu:               0.2 elap:               0.1
 (Enter /gpfs/fs1/soft/bebop/software/custom-built/gaussian/16-c.02/g16/l103.exe)

 GradGradGradGradGradGradGradGradGradGradGradGradGradGradGradGradGradGrad
 Berny optimization.
 Search for a local minimum.
 Step number   1 out of a maximum of   52
 All quantities printed in internal units (Hartrees-Bohrs-Radians)
 Second derivative matrix not updated -- first step.
 ITU=  0
     Eigenvalues ---    0.00493   0.00595   0.00660   0.02161   0.03733
     Eigenvalues ---    0.03976   0.05237   0.05509   0.05896   0.06144
     Eigenvalues ---    0.07959   0.10319   0.10564   0.11617   0.12660
     Eigenvalues ---    0.13662   0.14513   0.15607   0.18207   0.20625
     Eigenvalues ---    0.22952   0.25684   0.25741   0.34579   0.53689
     Eigenvalues ---    0.66210   0.68798   0.81962   0.84370   0.87014
     Eigenvalues ---    0.90690   0.97607   1.04543   1.12841   1.24172
     Eigenvalues ---    1.50738
 RFO step:  Lambda=-5.52321313D-04 EMin= 4.92734882D-03
 Linear search not attempted -- first point.
 B after Tr=    -0.001145   -0.000795   -0.001215
         Rot=    1.000000    0.000016   -0.000107    0.000001 Ang=   0.01 deg.
 Variable       Old X    -DE/DX   Delta X   Delta X   Delta X     New X
                                 (Linear)    (Quad)   (Total)
    X1       -1.92750  -0.00241   0.00000   0.00523   0.00456  -1.92294
    Y1        1.03619   0.00401   0.00000  -0.00004  -0.00076   1.03543
    Z1        2.23036   0.00366   0.00000  -0.00007  -0.00091   2.22945
    X2       -2.24090   0.00021   0.00000   0.01521   0.01512  -2.22578
    Y2        0.27769  -0.00124   0.00000  -0.00038  -0.00101   0.27668
    Z2        4.95662  -0.00041   0.00000  -0.00959  -0.01034   4.94628
    X3        0.52192   0.00419   0.00000   0.00133   0.00040   0.52232
    Y3        1.48552   0.00636   0.00000   0.00179   0.00103   1.48655
    Z3        1.00761  -0.00012   0.00000   0.00090  -0.00048   1.00714
    X4       -3.54753   0.00295   0.00000   0.01276   0.01192  -3.53560
    Y4        2.02418  -0.00171   0.00000   0.00065  -0.00010   2.02408
    Z4        1.42465   0.00117   0.00000   0.01195   0.01142   1.43607
    X5       -0.84992  -0.00028   0.00000  -0.00321  -0.00425  -0.85417
    Y5       -0.79922  -0.00721   0.00000  -0.00544  -0.00622  -0.80543
    Z5        0.53656  -0.00530   0.00000  -0.01754  -0.01855   0.51801
    X6        3.06611   0.00091   0.00000  -0.01453  -0.01519   3.05092
    Y6        1.19886  -0.00017   0.00000   0.00238   0.00166   1.20051
    Z6        2.23696   0.00154   0.00000   0.01198   0.01007   2.24704
    X7        0.50456   0.00005   0.00000   0.00435   0.00309   0.50765
    Y7        2.77559  -0.00231   0.00000  -0.00199  -0.00281   2.77279
    Z7       -0.59946   0.00283   0.00000   0.01163   0.01022  -0.58924
    X8       -0.60102  -0.00294   0.00000   0.01114   0.01119  -0.58982
    Y8       -0.75824   0.00205   0.00000   0.00607   0.00545  -0.75279
    Z8        5.65987  -0.00173   0.00000  -0.02374  -0.02480   5.63507
    X9       -2.50521   0.00014   0.00000   0.02324   0.02340  -2.48181
    Y9        1.96958  -0.00281   0.00000  -0.00877  -0.00936   1.96022
    Z9        6.12015  -0.00187   0.00000  -0.01159  -0.01233   6.10781
   X10       -3.90678   0.00261   0.00000   0.02181   0.02177  -3.88502
   Y10       -0.92583   0.00209   0.00000   0.00954   0.00892  -0.91691
   Z10        5.18519  -0.00058   0.00000  -0.00040  -0.00076   5.18443
   X11        4.41191  -0.00207   0.00000  -0.01606  -0.01701   4.39490
   Y11        0.45833   0.00153   0.00000  -0.00551  -0.00629   0.45204
   Z11        0.85156   0.00240   0.00000   0.02977   0.02760   0.87916
   X12        3.75927  -0.00100   0.00000  -0.01472  -0.01524   3.74403
   Y12        3.03556  -0.00287   0.00000  -0.00475  -0.00546   3.03011
[...]
 LinEq1:  Iter= 12 NonCon=     1 RMS=3.73D-08 Max=5.88D-07 NDo=     1
 LinEq1:  Iter= 13 NonCon=     1 RMS=1.33D-08 Max=4.80D-07 NDo=     1
 LinEq1:  Iter= 14 NonCon=     1 RMS=6.07D-09 Max=3.54D-07 NDo=     1
 LinEq1:  Iter= 15 NonCon=     1 RMS=2.58D-09 Max=1.26D-07 NDo=     1
 LinEq1:  Iter= 16 NonCon=     1 RMS=1.01D-09 Max=3.17D-08 NDo=     1
 LinEq1:  Iter= 17 NonCon=     1 RMS=2.86D-10 Max=5.03D-09 NDo=     1
 LinEq1:  Iter= 18 NonCon=     1 RMS=8.52D-11 Max=1.00D-09 NDo=     1
 LinEq1:  Iter= 19 NonCon=     0 RMS=3.20D-11 Max=5.01D-10 NDo=     1
 Linear equations converged to 1.000D-10 1.000D-09 after    19 iterations.
 End of Minotr F.D. properties file   721 does not exist.
 End of Minotr F.D. properties file   722 does not exist.
 End of Minotr F.D. properties file   788 does not exist.
 Leave Link 1002 at Tue Oct  8 13:57:29 2024, MaxMem=  2684354560 cpu:             409.3 elap:             116.2
 (Enter /gpfs/fs1/soft/bebop/software/custom-built/gaussian/16-c.02/g16/l701.exe)
 ... and contract with generalized density number  2.
 Compute integral first derivatives.
 R6Disp: Adding Grimme-D3(BJ) dispersion energy 1st derivatives to the gradient.
 Leave Link  701 at Tue Oct  8 13:57:29 2024, MaxMem=  2684354560 cpu:               0.8 elap:               0.2
 (Enter /gpfs/fs1/soft/bebop/software/custom-built/gaussian/16-c.02/g16/l702.exe)
 L702 exits ... SP integral derivatives will be done elsewhere.
 Leave Link  702 at Tue Oct  8 13:57:29 2024, MaxMem=  2684354560 cpu:               0.1 elap:               0.0
 (Enter /gpfs/fs1/soft/bebop/software/custom-built/gaussian/16-c.02/g16/l703.exe)
 Integral derivatives from FoFJK, PRISM(SPDF).
 Compute integral first derivatives, UseDBF=F ICtDFT=           0.
 Calling FoFJK, ICntrl=  10002127 FMM=F ISym2X=0 I1Cent= 0 IOpClX= 1 NMat=1 NMatS=1 NMatT=0.
 FoFJK:  IHMeth= 1 ICntrl=10002127 DoSepK=F KAlg= 0 I1Cent=           0 FoldK=F
 IRaf=         0 NMat=       1 IRICut=       1 DoRegI=T DoRafI=F ISym2E= 0 IDoP0=0 IntGTp=1.
 FoFCou: FMM=F IPFlag=           0 FMFlag=      100000 FMFlg1=         800
         NFxFlg=           0 DoJE=F BraDBF=F KetDBF=F FulRan=T
         wScrn=  0.000000 ICntrl=  10002127 IOpCl=  1 I1Cent=           0 NGrid=           0
         NMat0=    1 NMatS0=      1 NMatT0=    0 NMatD0=    1 NMtDS0=    0 NMtDT0=    0
 Symmetry not used in FoFCou.
 Leave Link  703 at Tue Oct  8 13:57:50 2024, MaxMem=  2684354560 cpu:             121.9 elap:              20.4
 (Enter /gpfs/fs1/soft/bebop/software/custom-built/gaussian/16-c.02/g16/l716.exe)
 Dipole        = 1.07779722D+00 3.19261833D-01 4.57687351D-01
 ***** Axes restored to original set *****
 -------------------------------------------------------------------
 Center     Atomic                   Forces (Hartrees/Bohr)
 Number     Number              X              Y              Z
 -------------------------------------------------------------------
      1        6           0.000192855   -0.001196975   -0.001290851
      2        6          -0.000909325    0.000542830   -0.003511661
      3        6          -0.000065389   -0.000956436   -0.001008099
      4        1           0.000263023    0.000116767   -0.000277205
      5        8           0.001518212    0.001921932    0.000963587
      6        6          -0.000402179   -0.000028644   -0.000835490
      7        1           0.000342627    0.000152392    0.000097127
      8        1           0.003059439   -0.002527697    0.000818906
      9        1          -0.000338824    0.003127401    0.001718349
     10        1          -0.002820862   -0.001747024   -0.000520901
     11        1           0.000707615   -0.000105675   -0.000919942
     12        1           0.000674574    0.001749011    0.000643831
     13        1           0.000006274   -0.001205356    0.001277708
     14       17          -0.002228040    0.000157471    0.002844642
 -------------------------------------------------------------------
 Cartesian Forces:  Max     0.003511661 RMS     0.001452621
 Leave Link  716 at Tue Oct  8 13:57:50 2024, MaxMem=  2684354560 cpu:               0.2 elap:               0.1
 (Enter /gpfs/fs1/soft/bebop/software/custom-built/gaussian/16-c.02/g16/l103.exe)

 GradGradGradGradGradGradGradGradGradGradGradGradGradGradGradGradGradGrad
 Berny optimization.
 Search for a local minimum.
 Step number   8 out of a maximum of   52
 All quantities printed in internal units (Hartrees-Bohrs-Radians)
 Update second derivatives using D2CorN and points    7
 ITU=  0  0  1  1  1  1  1  0
     Eigenvalues ---   -0.00658   0.00602   0.00859   0.02153   0.03729
     Eigenvalues ---    0.03956   0.05216   0.05518   0.05885   0.06144
     Eigenvalues ---    0.07996   0.10175   0.10662   0.11652   0.12698
     Eigenvalues ---    0.13654   0.14651   0.15671   0.18295   0.20976
     Eigenvalues ---    0.22525   0.24447   0.27636   0.34686   0.53358
     Eigenvalues ---    0.66219   0.68473   0.81797   0.84370   0.86938
     Eigenvalues ---    0.90643   0.97383   1.04395   1.12818   1.24178
     Eigenvalues ---    1.50162
 Eigenvalue     1 is  -6.58D-03 should be greater than     0.000000 Eigenvector:
                          Y8        Y13       Z11       Z13       X9
   1                    0.37822  -0.36921  -0.29461  -0.28984  -0.28708
                          Z8        X14       Y9        X5        X8
   1                    0.25074   0.23816   0.17582  -0.16761   0.16142
 RFO step:  Lambda=-6.57663567D-03 EMin=-6.57651348D-03
 I=     1 Eig=   -6.58D-03 Dot1=  1.68D-05
 I=     1 Stepn=  6.00D-01 RXN=   6.00D-01 EDone=F
 Mixed    1 eigenvectors in step.  Raw Step.Grad=  1.68D-05.
 RFO eigenvector is Hessian eigenvector with negative curvature.
 Taking step of  6.00D-01 in eigenvector direction(s).  Step.Grad= -1.22D-03.
 Quartic linear search produced a step of -0.77648.
 B after Tr=     0.030090    0.010861   -0.003481
         Rot=    0.999989   -0.001824    0.004187   -0.000409 Ang=  -0.53 deg.
 Variable       Old X    -DE/DX   Delta X   Delta X   Delta X     New X
                                 (Linear)    (Quad)   (Total)
    X1       -1.91734   0.00019   0.01143  -0.02250  -0.00025  -1.91759
    Y1        1.02748  -0.00120  -0.01402   0.01183  -0.00094   1.02654
    Z1        2.19314  -0.00129  -0.03821   0.05222  -0.00198   2.19115
    X2       -2.20063  -0.00091   0.00626   0.00586   0.00099  -2.19965
    Y2        0.20079   0.00054  -0.06098   0.06796  -0.00185   0.19894
    Z2        4.89259  -0.00351  -0.05074   0.07011  -0.00189   4.89070
    X3        0.53378  -0.00007   0.02598  -0.04592   0.00044   0.53422
    Y3        1.53120  -0.00096   0.04159  -0.04769   0.00149   1.53269
    Z3        1.01029  -0.00101   0.01128  -0.01718   0.00045   1.01073
    X4       -3.54110   0.00026   0.00569  -0.02314  -0.00081  -3.54190
    Y4        1.99287   0.00012  -0.03464   0.02975  -0.00209   1.99078
    Z4        1.39835  -0.00028  -0.04982   0.07368  -0.00224   1.39611
    X5       -0.79994   0.00152   0.07592  -0.10057   0.00220  -0.79774
    Y5       -0.79411   0.00192   0.02322  -0.03014   0.00157  -0.79255
    Z5        0.45989   0.00096  -0.04134   0.05195  -0.00271   0.45718
    X6        3.03677  -0.00040   0.00723  -0.01745  -0.00042   3.03635
    Y6        1.27748  -0.00003   0.06824  -0.07145   0.00174   1.27922
    Z6        2.30772  -0.00084   0.05764  -0.08155   0.00251   2.31022
    X7        0.52063   0.00034   0.03307  -0.06452   0.00124   0.52187
    Y7        2.81884   0.00015   0.05544  -0.06595   0.00288   2.82173
    Z7       -0.58305   0.00010   0.02248  -0.03190   0.00145  -0.58160
    X8       -0.68858   0.00306  -0.08537   0.09685  -0.00316  -0.69174
    Y8       -1.05388  -0.00253  -0.22069   0.22693  -0.00333  -1.05721
    Z8        5.44290   0.00082  -0.14312   0.15044  -0.00588   5.43702
    X9       -2.17573  -0.00034   0.20150  -0.17225   0.00642  -2.16931
    Y9        1.83475   0.00313  -0.09798   0.10549  -0.00580   1.82895
    Z9        6.13264   0.00172   0.00021   0.01284  -0.00195   6.13069
   X10       -3.97645  -0.00282  -0.07537   0.08989   0.00168  -3.97477
   Y10       -0.77816  -0.00175   0.09064  -0.07635   0.00292  -0.77524
   Z10        5.17958  -0.00052  -0.02130   0.06274   0.00177   5.18135
   X11        4.35640   0.00071  -0.01540  -0.00754  -0.00203   4.35437
   Y11        0.29465  -0.00011  -0.08796   0.07307  -0.00438   0.29027
   Z11        1.07630  -0.00092   0.15050  -0.17677   0.00753   1.08383
   X12        3.80734   0.00067   0.06423  -0.06657   0.00271   3.81005
   Y12        3.13930   0.00175   0.08116  -0.08536  -0.00002   3.13928
   Z12        2.70665   0.00064  -0.10753   0.06360  -0.00423   2.70243
   X13        2.90073   0.00001  -0.03677   0.03856  -0.00232   2.89842
   Y13        0.23566  -0.00121   0.23241  -0.22152   0.00929   0.24496
   Z13        4.06443   0.00128   0.15725  -0.17390   0.00490   4.06933
   X14        0.39961  -0.00223  -0.21840   0.14290  -0.00670   0.39291
   Y14       -1.30282   0.00016  -0.07644   0.04743  -0.00148  -1.30430
   Z14       -4.49964   0.00284   0.05269  -0.04498   0.00228  -4.49736
         Item               Value     Threshold  Converged?
 Maximum Force            0.003512     0.000450     NO 
 RMS     Force            0.001453     0.000300     NO 
 Maximum Displacement     0.009294     0.001800     NO 
 RMS     Displacement     0.003393     0.001200     NO 
 Predicted change in Energy=-4.037233D-04
 GradGradGradGradGradGradGradGradGradGradGradGradGradGradGradGradGradGrad

 Leave Link  103 at Tue Oct  8 13:57:50 2024, MaxMem=  2684354560 cpu:               0.1 elap:               0.0
 (Enter /gpfs/fs1/soft/bebop/software/custom-built/gaussian/16-c.02/g16/l202.exe)
                          Input orientation:                          
 ---------------------------------------------------------------------
 Center     Atomic      Atomic             Coordinates (Angstroms)
 Number     Number       Type             X           Y           Z
 ---------------------------------------------------------------------
      1          6           0       -1.014745    0.543221    1.159509
      2          6           0       -1.164003    0.105275    2.588045
      3          6           0        0.282698    0.811066    0.534858
      4          1           0       -1.874295    1.053474    0.738788
      5          8           0       -0.422146   -0.419399    0.241929
      6          6           0        1.606766    0.676935    1.222516
      7          1           0        0.276160    1.493194   -0.307767
      8          1           0       -0.366050   -0.559452    2.877149
      9          1           0       -1.147947    0.967840    3.244220
     10          1           0       -2.103359   -0.410240    2.741853
     11          1           0        2.304231    0.153603    0.573537
     12          1           0        2.016189    1.661236    1.430063
     13          1           0        1.533776    0.129625    2.153396
     14         17           0        0.207918   -0.690204   -2.379900
 ---------------------------------------------------------------------
                    Distance matrix (angstroms):
                    1          2          3          4          5
     1  C    0.000000
     2  C    1.501595   0.000000
     3  C    1.464680   2.608958   0.000000
     4  H    1.084523   2.196212   2.180130   0.000000
     5  O    1.455941   2.515928   1.447983   2.127195   0.000000
     6  C    2.625675   3.141436   1.498005   3.534623   2.505989
     7  H    2.172966   3.519391   1.084139   2.431684   2.108983
     8  H    2.141724   1.078040   2.790255   3.073910   2.639536
     9  H    2.131681   1.083901   3.067893   2.610000   3.385996
    10  H    2.144290   1.082499   3.472130   2.491425   3.012670
    11  H    3.392752   4.011137   2.126111   4.277518   2.805607
    12  H    3.241870   3.724991   2.128186   3.997888   3.418506
    13  H    2.766556   2.732676   2.156206   3.803887   2.789402
    14  Cl   3.942544   5.214923   3.279514   4.135485   2.710037
                    6          7          8          9         10
     6  C    0.000000
     7  H    2.185991   0.000000
     8  H    2.856303   3.843108   0.000000
     9  H    3.429337   3.862730   1.754629   0.000000
    10  H    4.153957   4.311073   1.748946   1.750512   0.000000
    11  H    1.086972   2.585396   3.597983   4.439939   4.944326
    12  H    1.086072   2.464953   3.563788   3.712644   4.794006
    13  H    1.082318   3.081922   2.146622   3.013990   3.723773
    14  Cl   4.099176   3.010917   5.289906   6.018156   5.626076
                   11         12         13         14
    11  H    0.000000
    12  H    1.757715   0.000000
    13  H    1.757877   1.761183   0.000000
    14  Cl   3.718781   4.828554   4.793829   0.000000
 Stoichiometry    C4H8ClO(2)
 Framework group  C1[X(C4H8ClO)]
 Deg. of freedom    36
 Full point group                 C1      NOp   1
 RotChk:  IX=0 Diff= 2.01D-03
 Largest Abelian subgroup         C1      NOp   1
 Largest concise Abelian subgroup C1      NOp   1
                         Standard orientation:                         
 ---------------------------------------------------------------------
 Center     Atomic      Atomic             Coordinates (Angstroms)
 Number     Number       Type             X           Y           Z
 ---------------------------------------------------------------------
      1          6           0        1.253937   -0.704733    0.471176
      2          6           0        2.549161   -0.862445   -0.272000
      3          6           0        0.508794    0.555121    0.524285
      4          1           0        1.103756   -1.396318    1.292970
      5          8           0        0.057857   -0.517488   -0.337586
      6          6           0        0.927491    1.825313   -0.150492
      7          1           0       -0.143030    0.689592    1.380090
      8          1           0        2.547374   -0.287950   -1.184207
      9          1           0        3.374342   -0.525821    0.344931
     10          1           0        2.728378   -1.898906   -0.527801
     11          1           0        0.073287    2.270124   -0.654462
     12          1           0        1.287096    2.534826    0.588986
     13          1           0        1.707623    1.664546   -0.883269
     14         17           0       -2.622234   -0.222925   -0.064374
 ---------------------------------------------------------------------
 Rotational constants (GHZ):           4.9836820           1.2758457           1.0857741
 Leave Link  202 at Tue Oct  8 13:57:50 2024, MaxMem=  2684354560 cpu:               0.0 elap:               0.0
 (Enter /gpfs/fs1/soft/bebop/software/custom-built/gaussian/16-c.02/g16/l301.exe)
 Standard basis: CC-pVTZ (5D, 7F)
 Ernie: Thresh=  0.10000D-02 Tol=  0.10000D-05 Strict=F.
 Ernie:  28 primitive shells out of 254 were deleted.
 There are   334 symmetry adapted cartesian basis functions of A   symmetry.
 There are   296 symmetry adapted basis functions of A   symmetry.
   296 basis functions,   490 primitive gaussians,   334 cartesian basis functions
    29 alpha electrons       28 beta electrons
       nuclear repulsion energy       280.1759148521 Hartrees.
 IExCor=  419 DFT=T Ex+Corr=B2PLYPD3 ExCW=0 ScaHFX=  0.530000
 ScaDFX=  0.470000  0.470000  0.730000  0.730000 ScalE2=  0.270000  0.270000
 IRadAn=      5 IRanWt=     -1 IRanGd=            0 ICorTp=0 IEmpDi=141
 NAtoms=   14 NActive=   14 NUniq=   14 SFac= 1.00D+00 NAtFMM=   60 NAOKFM=F Big=F
 Integral buffers will be    131072 words long.
 Regular integral format.
 Two-electron integral symmetry is turned on.
 R6Disp:  Grimme-D3(BJ) Dispersion energy=       -0.0078644588 Hartrees.
 Nuclear repulsion after empirical dispersion term =      280.1680503934 Hartrees.
 Leave Link  301 at Tue Oct  8 13:57:50 2024, MaxMem=  2684354560 cpu:               0.3 elap:               0.1
 (Enter /gpfs/fs1/soft/bebop/software/custom-built/gaussian/16-c.02/g16/l302.exe)
 NPDir=0 NMtPBC=     1 NCelOv=     1 NCel=       1 NClECP=     1 NCelD=      1
         NCelK=      1 NCelE2=     1 NClLst=     1 CellRange=     0.0.
 One-electron integrals computed using PRISM.
 One-electron integral symmetry used in STVInt
 NBasis=   296 RedAO= T EigKep=  2.68D-04  NBF=   296
 NBsUse=   296 1.00D-06 EigRej= -1.00D+00 NBFU=   296
 Precomputing XC quadrature grid using
 IXCGrd= 4 IRadAn=           5 IRanWt=          -1 IRanGd=           0 AccXCQ= 0.00D+00.
 Generated NRdTot=       0 NPtTot=           0 NUsed=           0 NTot=          32
 NSgBfM=   334   334   334   334   334 MxSgAt=    14 MxSgA2=    14.
 Leave Link  302 at Tue Oct  8 13:57:50 2024, MaxMem=  2684354560 cpu:               1.3 elap:               0.2
 (Enter /gpfs/fs1/soft/bebop/software/custom-built/gaussian/16-c.02/g16/l303.exe)
 DipDrv:  MaxL=1.
 Leave Link  303 at Tue Oct  8 13:57:50 2024, MaxMem=  2684354560 cpu:               0.2 elap:               0.1
 (Enter /gpfs/fs1/soft/bebop/software/custom-built/gaussian/16-c.02/g16/l401.exe)
 Lowest energy guess from the checkpoint file:  "/scratch/Gau-1826418.chk"
 B after Tr=     0.000000    0.000000   -0.000000
         Rot=    0.999808   -0.010174   -0.000353   -0.016771 Ang=  -2.25 deg.
 Guess basis will be translated and rotated to current coordinates.
 B after Tr=    -0.000000    0.000000    0.000000
         Rot=    1.000000    0.000152    0.000024    0.000435 Ang=   0.05 deg.
 Guess basis will be translated and rotated to current coordinates.
 CkInt1:  FT= 2.24D-01
 Max alpha theta=  1.903 degrees.
 Max  beta theta=  4.629 degrees.
 JPrj=2 DoOrth=T DoCkMO=T.
 Initial guess <Sx>= 0.0000 <Sy>= 0.0000 <Sz>= 0.5000 <S**2>= 0.7556 S= 0.5028
 Leave Link  401 at Tue Oct  8 13:57:51 2024, MaxMem=  2684354560 cpu:               1.6 elap:               0.3
 (Enter /gpfs/fs1/soft/bebop/software/custom-built/gaussian/16-c.02/g16/l502.exe)
 Keep R1 and R2 ints in memory in canonical form, NReq=1950973320.
 FoFCou: FMM=F IPFlag=           0 FMFlag=           0 FMFlg1=           0
         NFxFlg=           0 DoJE=F BraDBF=F KetDBF=F FulRan=T
         wScrn=  0.000000 ICntrl=       600 IOpCl=  0 I1Cent=           0 NGrid=           0
         NMat0=    1 NMatS0=  43956 NMatT0=    0 NMatD0=    1 NMtDS0=    0 NMtDT0=    0
 Symmetry not used in FoFCou.
 Two-electron integral symmetry not used.
 UHF open shell SCF:
 Using DIIS extrapolation, IDIIS=  1040.
 NGot=  2684354560 LenX=   751952220 LenY=   751840223
 Requested convergence on RMS density matrix=1.00D-08 within  32 cycles.
 Requested convergence on MAX density matrix=1.00D-06.
 Requested convergence on             energy=1.00D-06.
 No special actions if energy rises.

 Cycle   1  Pass 1  IDiag  1:
 E= -691.993149925955    
 DIIS: error= 3.20D-03 at cycle   1 NSaved=   1.
 NSaved= 1 IEnMin= 1 EnMin= -691.993149925955     IErMin= 1 ErrMin= 3.20D-03
 ErrMax= 3.20D-03  0.00D+00 EMaxC= 1.00D-01 BMatC= 1.62D-02 BMatP= 1.62D-02
 IDIUse=3 WtCom= 9.68D-01 WtEn= 3.20D-02
 Coeff-Com:  0.100D+01
 Coeff-En:   0.100D+01
 Coeff:      0.100D+01
 Gap=   102.213 Goal=   None    Shift=    0.000
 Gap=    99.936 Goal=   None    Shift=    0.000
 GapD=   99.936 DampG=2.000 DampE=1.000 DampFc=2.0000 IDamp=-1.
 RMSDP=1.80D-04 MaxDP=4.63D-03              OVMax= 1.68D-02

 Cycle   2  Pass 1  IDiag  1:
 E= -691.998275856956     Delta-E=       -0.005125931001 Rises=F Damp=F
 DIIS: error= 7.12D-04 at cycle   2 NSaved=   2.
 NSaved= 2 IEnMin= 2 EnMin= -691.998275856956     IErMin= 2 ErrMin= 7.12D-04
 ErrMax= 7.12D-04  0.00D+00 EMaxC= 1.00D-01 BMatC= 4.81D-04 BMatP= 1.62D-02
 IDIUse=3 WtCom= 9.93D-01 WtEn= 7.12D-03
 Coeff-Com: -0.128D+00 0.113D+01
 Coeff-En:   0.000D+00 0.100D+01
 Coeff:     -0.127D+00 0.113D+01
 Gap=     0.426 Goal=   None    Shift=    0.000
 Gap=     0.222 Goal=   None    Shift=    0.000
 RMSDP=4.80D-05 MaxDP=1.21D-03 DE=-5.13D-03 OVMax= 6.73D-03

 Cycle   3  Pass 1  IDiag  1:
