 Entering Gaussian System, Link 0=g16
 Input=run.inp
 Output=run.out
 Initial command:
 /gpfs/fs1/soft/bebop/software/custom-built/gaussian/16-c.02/g16/l1.exe "/scratch/Gau-2578552.inp" -scrdir="/scratch/"
 Default CPUs for threads: 0-35
 Default is to use a total of  36 processors:
                               36 via shared-memory
                                1 via Linda
 Entering Link 1 = /gpfs/fs1/soft/bebop/software/custom-built/gaussian/16-c.02/g16/l1.exe PID=   2578556.
  
 Copyright (c) 1988-2019, Gaussian, Inc.  All Rights Reserved.
  
 This is part of the Gaussian(R) 16 program.  It is based on
 the Gaussian(R) 09 system (copyright 2009, Gaussian, Inc.),
 the Gaussian(R) 03 system (copyright 2003, Gaussian, Inc.),
 the Gaussian(R) 98 system (copyright 1998, Gaussian, Inc.),
 the Gaussian(R) 94 system (copyright 1995, Gaussian, Inc.),
 the Gaussian 92(TM) system (copyright 1992, Gaussian, Inc.),
 the Gaussian 90(TM) system (copyright 1990, Gaussian, Inc.),
 the Gaussian 88(TM) system (copyright 1988, Gaussian, Inc.),
 the Gaussian 86(TM) system (copyright 1986, Carnegie Mellon
 University), and the Gaussian 82(TM) system (copyright 1983,
 Carnegie Mellon University). Gaussian is a federally registered
 trademark of Gaussian, Inc.
  
 This software contains proprietary and confidential information,
 including trade secrets, belonging to Gaussian, Inc.
  
 This software is provided under written license and may be
 used, copied, transmitted, or stored only in accord with that
 written license.
  
 The following legend is applicable only to US Government
 contracts under FAR:
  
                    RESTRICTED RIGHTS LEGEND
  
 Use, reproduction and disclosure by the US Government is
 subject to restrictions as set forth in subparagraphs (a)
 and (c) of the Commercial Computer Software - Restricted
 Rights clause in FAR 52.227-19.
  
 Gaussian, Inc.
 340 Quinnipiac St., Bldg. 40, Wallingford CT 06492
  
  
 ---------------------------------------------------------------
 Warning -- This program may not be used in any manner that
 competes with the business of Gaussian, Inc. or will provide
 assistance to any competitor of Gaussian, Inc.  The licensee
 of this program is prohibited from giving any competitor of
 Gaussian, Inc. access to this program.  By using this program,
 the user acknowledges that Gaussian, Inc. is engaged in the
 business of creating and licensing software in the field of
 computational chemistry and represents and warrants to the
 licensee that it is not a competitor of Gaussian, Inc. and that
 it will not use this program in any manner prohibited above.
 ---------------------------------------------------------------
  

 Cite this work as:
 Gaussian 16, Revision C.01,
 M. J. Frisch, G. W. Trucks, H. B. Schlegel, G. E. Scuseria, 
 M. A. Robb, J. R. Cheeseman, G. Scalmani, V. Barone, 
 G. A. Petersson, H. Nakatsuji, X. Li, M. Caricato, A. V. Marenich, 
 J. Bloino, B. G. Janesko, R. Gomperts, B. Mennucci, H. P. Hratchian, 
 J. V. Ortiz, A. F. Izmaylov, J. L. Sonnenberg, D. Williams-Young, 
 F. Ding, F. Lipparini, F. Egidi, J. Goings, B. Peng, A. Petrone, 
 T. Henderson, D. Ranasinghe, V. G. Zakrzewski, J. Gao, N. Rega, 
 G. Zheng, W. Liang, M. Hada, M. Ehara, K. Toyota, R. Fukuda, 
 J. Hasegawa, M. Ishida, T. Nakajima, Y. Honda, O. Kitao, H. Nakai, 
 T. Vreven, K. Throssell, J. A. Montgomery, Jr., J. E. Peralta, 
 F. Ogliaro, M. J. Bearpark, J. J. Heyd, E. N. Brothers, K. N. Kudin, 
 V. N. Staroverov, T. A. Keith, R. Kobayashi, J. Normand, 
 K. Raghavachari, A. P. Rendell, J. C. Burant, S. S. Iyengar, 
 J. Tomasi, M. Cossi, J. M. Millam, M. Klene, C. Adamo, R. Cammi, 
 J. W. Ochterski, R. L. Martin, K. Morokuma, O. Farkas, 
 J. B. Foresman, and D. J. Fox, Gaussian, Inc., Wallingford CT, 2019.
 
 ******************************************
 Gaussian 16:  ES64L-G16RevC.01  3-Jul-2019
                14-Oct-2024 
 ******************************************
 %mem=20GB
 %NProcShared=6
 Will use up to    6 processors via shared memory.
 ------------------------------------------------------------------
 #P b2plypd3/cc-pvtz # SCF=(xqc) # POpt=(verytight) # int=ultrafine
 ------------------------------------------------------------------
 1/7=1,10=7,38=1/1,3;
 2/12=2,17=6,18=5,29=3,40=1/2;
 3/5=16,6=1,11=9,25=1,30=1,71=1,74=-60,75=-5/1,2,3;
 4//1;
 5/5=2,8=3,13=1,38=5/2,8;
 8/6=4,10=1/1;
 9/15=2,16=-3/6;
 10/5=1/2;
 6/7=2,8=2,9=2,10=2/1;
 7/12=2,29=1/1,2,3,16;
 1/7=1,10=7/3(2);
 2/29=3/2;
 99//99;
 2/29=3/2;
 3/5=16,6=1,11=9,25=1,30=1,71=1,74=-60,75=-5/1,2,3;
 4/5=5,16=3,69=1/1;
 5/5=2,8=3,13=1,38=5/2,8;
 8/6=4,10=1/1;
 9/15=2,16=-3/6;
 10/5=1/2;
 7/12=2/1,2,3,16;
 1/7=1/3(-8);
 2/29=3/2;
 6/7=2,8=2,9=2,10=2/1;
 99/9=10/99;
 Leave Link    1 at Mon Oct 14 10:53:41 2024, MaxMem=  2684354560 cpu:               0.3 elap:               0.0
 (Enter /gpfs/fs1/soft/bebop/software/custom-built/gaussian/16-c.02/g16/l101.exe)
 --------
 comment:
 --------
 Symbolic Z-matrix:
 Charge =  0 Multiplicity = 2
 C
 C                    1    R1
 C                    1    R2       2    A2
 H                    1    R3       2    A3       3    D3       0
 O                    3    R4       1    A4       2    D4       0
 C                    3    R5       1    A5       5    D5       0
 H                    3    R6       1    A6       5    D6       0
 H                    2    R7       1    A7       3    D7       0
 H                    2    R8       1    A8       8    D8       0
 H                    2    R9       1    A9       8    D9       0
 H                    6    R10      3    A10      1    D10      0
 H                    6    R11      3    A11      11   D11      0
 H                    6    R12      3    A12      11   D12      0
 X                    7    R13      3    A13      1    D13      0
 Cl                   7    R14      14   A14      3    D14      0
       Variables:
  R1                    1.49727                  
  R2                    1.46653                  
  R3                    1.08302                  
  R4                    1.45761                  
  R5                    1.49727                  
  R6                    1.08302                  
  R7                    1.08561                  
  R8                    1.0902                   
  R9                    1.08861                  
  R10                   1.08861                  
  R11                   1.0902                   
  R12                   1.08562                  
  R14                   2.90713                  
  A2                  125.03                     
  A3                  115.384                    
  A4                   59.797                    
  A5                  125.031                    
  A6                  115.789                    
  A7                  112.072                    
  A8                  109.592                    
  A9                  109.911                    
  A10                 109.911                    
  A11                 109.592                    
  A12                 112.072                    
  A14                  74.374                    
  D3                  202.97                     
  D4                  102.067                    
  D5                  257.933                    
  D6                  100.982                    
  D7                  334.81                     
  D8                  120.869                    
  D9                  239.417                    
  D10                 145.778                    
  D11                 118.548                    
  D12                 239.417                    
  D14                 219.825                    
       Constants:
  R13                   1.                       
  A13                  25.061                    
  D13                 261.454                    
 
 ITRead=  0  0  0  0  0  0  0  0  0  0  0  0  0  0
 MicOpt= -1 -1 -1 -1 -1 -1 -1 -1 -1 -1 -1 -1 -1 -1
 NAtoms=     14 NQM=       14 NQMF=       0 NMMI=      0 NMMIF=      0
                NMic=       0 NMicF=      0.
                    Isotopes and Nuclear Properties:
 (Nuclear quadrupole moments (NQMom) in fm**2, nuclear magnetic moments (NMagM)
  in nuclear magnetons)

  Atom         1           2           3           4           5           6           7           8           9          10
 IAtWgt=          12          12          12           1          16          12           1           1           1           1
 AtmWgt=  12.0000000  12.0000000  12.0000000   1.0078250  15.9949146  12.0000000   1.0078250   1.0078250   1.0078250   1.0078250
 NucSpn=           0           0           0           1           0           0           1           1           1           1
 AtZEff=  -0.0000000  -0.0000000  -0.0000000  -0.0000000  -0.0000000  -0.0000000  -0.0000000  -0.0000000  -0.0000000  -0.0000000
 NQMom=    0.0000000   0.0000000   0.0000000   0.0000000   0.0000000   0.0000000   0.0000000   0.0000000   0.0000000   0.0000000
 NMagM=    0.0000000   0.0000000   0.0000000   2.7928460   0.0000000   0.0000000   2.7928460   2.7928460   2.7928460   2.7928460
 AtZNuc=   6.0000000   6.0000000   6.0000000   1.0000000   8.0000000   6.0000000   1.0000000   1.0000000   1.0000000   1.0000000

  Atom        11          12          13          14
 IAtWgt=           1           1           1          35
 AtmWgt=   1.0078250   1.0078250   1.0078250  34.9688527
 NucSpn=           1           1           1           3
 AtZEff=  -0.0000000  -0.0000000  -0.0000000  -0.0000000
 NQMom=    0.0000000   0.0000000   0.0000000  -8.1650000
 NMagM=    2.7928460   2.7928460   2.7928460   0.8218740
 AtZNuc=   1.0000000   1.0000000   1.0000000  17.0000000
 Leave Link  101 at Mon Oct 14 10:53:41 2024, MaxMem=  2684354560 cpu:               0.6 elap:               0.1
 (Enter /gpfs/fs1/soft/bebop/software/custom-built/gaussian/16-c.02/g16/l103.exe)

 GradGradGradGradGradGradGradGradGradGradGradGradGradGradGradGradGradGrad
 Berny optimization.
 Initialization pass.
                       ----------------------------
                       !    Initial Parameters    !
                       ! (Angstroms and Degrees)  !
 ----------------------                            ----------------------
 !      Name          Value   Derivative information (Atomic Units)     !
 ------------------------------------------------------------------------
 !       R1          1.4973   estimate D2E/DX2                          !
 !       R2          1.4665   estimate D2E/DX2                          !
 !       R3          1.083    estimate D2E/DX2                          !
 !       R4          1.4576   estimate D2E/DX2                          !
 !       R5          1.4973   estimate D2E/DX2                          !
 !       R6          1.083    estimate D2E/DX2                          !
 !       R7          1.0856   estimate D2E/DX2                          !
 !       R8          1.0902   estimate D2E/DX2                          !
 !       R9          1.0886   estimate D2E/DX2                          !
 !       R10         1.0886   estimate D2E/DX2                          !
 !       R11         1.0902   estimate D2E/DX2                          !
 !       R12         1.0856   estimate D2E/DX2                          !
 !       R14         2.9071   estimate D2E/DX2                          !
 !       A2        125.03     estimate D2E/DX2                          !
 !       A3        115.384    estimate D2E/DX2                          !
 !       A4         59.797    estimate D2E/DX2                          !
 !       A5        125.031    estimate D2E/DX2                          !
 !       A6        115.789    estimate D2E/DX2                          !
 !       A7        112.072    estimate D2E/DX2                          !
 !       A8        109.592    estimate D2E/DX2                          !
 !       A9        109.911    estimate D2E/DX2                          !
 !       A10       109.911    estimate D2E/DX2                          !
 !       A11       109.592    estimate D2E/DX2                          !
 !       A12       112.072    estimate D2E/DX2                          !
 !       A14        74.374    estimate D2E/DX2                          !
 !       D3        202.97     estimate D2E/DX2                          !
 !       D4        102.067    estimate D2E/DX2                          !
 !       D5        257.933    estimate D2E/DX2                          !
 !       D6        100.982    estimate D2E/DX2                          !
 !       D7        334.81     estimate D2E/DX2                          !
 !       D8        120.869    estimate D2E/DX2                          !
 !       D9        239.417    estimate D2E/DX2                          !
 !       D10       145.778    estimate D2E/DX2                          !
 !       D11       118.548    estimate D2E/DX2                          !
 !       D12       239.417    estimate D2E/DX2                          !
 !       D14       219.825    estimate D2E/DX2                          !
 !       R13         1.0      Frozen                                    !
 !       A13        25.061    Frozen                                    !
 !       D13       261.454    Frozen                                    !
 ------------------------------------------------------------------------
 Trust Radius=3.00D-01 FncErr=1.00D-07 GrdErr=1.00D-07 EigMax=2.50D+02 EigMin=1.00D-04
 Number of steps in this run=     49 maximum allowed number of steps=    100.
 GradGradGradGradGradGradGradGradGradGradGradGradGradGradGradGradGradGrad

 Leave Link  103 at Mon Oct 14 10:53:41 2024, MaxMem=  2684354560 cpu:               0.1 elap:               0.0
 (Enter /gpfs/fs1/soft/bebop/software/custom-built/gaussian/16-c.02/g16/l202.exe)
 ---------------------------------------------------------------------------------------------------
                            Z-MATRIX (ANGSTROMS AND DEGREES)
   CD    Cent   Atom    N1       Length/X        N2       Alpha/Y        N3        Beta/Z          J
 ---------------------------------------------------------------------------------------------------
      1      1  C 
      2      2  C        1   1.497268(     1)
      3      3  C        1   1.466531(     2)      2  125.030(    15)
      4      4  H        1   1.083019(     3)      2  115.384(    16)      3  202.970(    28)      0
      5      5  O        3   1.457606(     4)      1   59.797(    17)      2  102.067(    29)      0
      6      6  C        3   1.497266(     5)      1  125.031(    18)      5  257.933(    30)      0
      7      7  H        3   1.083017(     6)      1  115.789(    19)      5  100.982(    31)      0
      8      8  H        2   1.085615(     7)      1  112.072(    20)      3  334.810(    32)      0
      9      9  H        2   1.090199(     8)      1  109.592(    21)      8  120.869(    33)      0
     10     10  H        2   1.088612(     9)      1  109.911(    22)      8  239.417(    34)      0
     11     11  H        6   1.088612(    10)      3  109.911(    23)      1  145.778(    35)      0
     12     12  H        6   1.090199(    11)      3  109.592(    24)     11  118.548(    36)      0
     13     13  H        6   1.085616(    12)      3  112.072(    25)     11  239.417(    37)      0
     14         X        7   1.000000(    13)      3   25.061(    26)      1  261.454(    38)      0
     15     14  Cl       7   2.907134(    14)     14   74.374(    27)      3  219.825(    39)      0
 ---------------------------------------------------------------------------------------------------
                         Z-Matrix orientation:                         
 ---------------------------------------------------------------------
 Center     Atomic      Atomic             Coordinates (Angstroms)
 Number     Number       Type             X           Y           Z
 ---------------------------------------------------------------------
      1          6           0        0.000000    0.000000    0.000000
      2          6           0        0.000000    0.000000    1.497268
      3          6           0        1.200871    0.000000   -0.841797
      4          1           0       -0.900876    0.381843   -0.464272
      5          8           0        0.449265   -1.231898   -0.636543
      6          6           0        2.608385    0.000000   -0.331200
      7          1           0        1.071636    0.381789   -1.847013
      8          1           0        0.910379   -0.428198    1.905211
      9          1           0       -0.101635    1.022040    1.862834
     10          1           0       -0.846277   -0.575712    1.868006
     11          1           0        3.245514   -0.575639   -1.000366
     12          1           0        2.986667    1.022049   -0.301993
     13          1           0        2.681431   -0.428277    0.663690
     14         -1           0        1.146469   -0.333710   -1.152419
     15         17           0       -0.906053   -1.622237   -2.570927
 ---------------------------------------------------------------------
                    Distance matrix (angstroms):
                    1          2          3          4          5
     1  C    0.000000
     2  C    1.497268   0.000000
     3  C    1.466531   2.629318   0.000000
     4  H    1.083019   2.192036   2.169256   0.000000
     5  O    1.457601   2.504508   1.457606   2.111094   0.000000
     6  C    2.629328   3.185431   1.497266   3.532482   2.504518
     7  H    2.169245   3.532476   1.083017   2.408896   2.111060
     8  H    2.154524   1.085615   2.795316   3.090511   2.705379
     9  H    2.127215   1.090199   3.171137   2.542451   3.410368
    10  H    2.130041   1.088612   3.444603   2.521787   2.895129
    11  H    3.444627   4.135565   2.130039   4.289140   2.895178
    12  H    3.171114   3.633470   2.127213   3.943246   3.410368
    13  H    2.795349   2.840483   2.154523   3.842072   2.705361
    14  X    1.659464   2.906302   0.459138   2.275343   1.248585
    15  Cl   3.172105   4.472449   3.171857   2.907638   2.393970
                    6          7          8          9         10
     6  C    0.000000
     7  H    2.192043   0.000000
     8  H    2.840442   3.842040   0.000000
     9  H    3.633532   3.943279   1.768942   0.000000
    10  H    4.135534   4.289122   1.763231   1.762763   0.000000
    11  H    1.088612   2.521750   3.730546   4.685498   4.997030
    12  H    1.090199   2.542511   3.359455   3.771483   4.685424
    13  H    1.085616   3.090514   2.162869   3.359587   3.730528
    14  X    1.709668   1.000000   3.068187   3.533775   3.626647
    15  Cl   4.472059   2.907134   4.976040   5.224703   4.561021
                   11         12         13         14         15
    11  H    0.000000
    12  H    1.762763   0.000000
    13  H    1.763232   1.768943   0.000000
    14  X    2.118405   2.438777   2.379770   0.000000
    15  Cl   4.560432   5.224326   4.975774   2.808080   0.000000
 Stoichiometry    C4H8ClO(2)
 Framework group  C1[X(C4H8ClO)]
 Deg. of freedom    36
 Full point group                 C1      NOp   1
 Largest Abelian subgroup         C1      NOp   1
 Largest concise Abelian subgroup C1      NOp   1
                         Standard orientation:                         
 ---------------------------------------------------------------------
 Center     Atomic      Atomic             Coordinates (Angstroms)
 Number     Number       Type             X           Y           Z
 ---------------------------------------------------------------------
      1          6           0        0.656525   -0.733293    0.411055
      2          6           0        1.776514   -1.592502   -0.088140
      3          6           0        0.656224    0.733238    0.411054
      4          1           0       -0.007440   -1.204618    1.125151
      5          8           0       -0.085743   -0.000186   -0.606880
      6          6           0        1.775843    1.592928   -0.088135
      7          1           0       -0.007983    1.204278    1.125111
      8          1           0        2.384451   -1.081074   -0.828014
      9          1           0        2.412833   -1.885431    0.747220
     10          1           0        1.375890   -2.498366   -0.539790
     11          1           0        1.374836    2.498664   -0.539701
     12          1           0        2.412087    1.886051    0.747213
     13          1           0        2.383947    1.081794   -0.828077
     14         17           0       -2.401960   -0.000120   -0.001711
 ---------------------------------------------------------------------
 Rotational constants (GHZ):           4.4107857           1.5374447           1.2273283
 Leave Link  202 at Mon Oct 14 10:53:42 2024, MaxMem=  2684354560 cpu:               0.1 elap:               0.0
 (Enter /gpfs/fs1/soft/bebop/software/custom-built/gaussian/16-c.02/g16/l301.exe)
 Standard basis: CC-pVTZ (5D, 7F)
 Ernie: Thresh=  0.10000D-02 Tol=  0.10000D-05 Strict=F.
 Ernie:  28 primitive shells out of 254 were deleted.
 There are   334 symmetry adapted cartesian basis functions of A   symmetry.
 There are   296 symmetry adapted basis functions of A   symmetry.
   296 basis functions,   490 primitive gaussians,   334 cartesian basis functions
    29 alpha electrons       28 beta electrons
       nuclear repulsion energy       288.8641170538 Hartrees.
 IExCor=  419 DFT=T Ex+Corr=B2PLYPD3 ExCW=0 ScaHFX=  0.530000
 ScaDFX=  0.470000  0.470000  0.730000  0.730000 ScalE2=  0.270000  0.270000
 IRadAn=      5 IRanWt=     -1 IRanGd=            0 ICorTp=0 IEmpDi=141
 NAtoms=   14 NActive=   14 NUniq=   14 SFac= 1.00D+00 NAtFMM=   60 NAOKFM=F Big=F
 Integral buffers will be    131072 words long.
 Regular integral format.
 Two-electron integral symmetry is turned on.
 R6Disp:  Grimme-D3(BJ) Dispersion energy=       -0.0081773577 Hartrees.
 Nuclear repulsion after empirical dispersion term =      288.8559396961 Hartrees.
 Leave Link  301 at Mon Oct 14 10:53:42 2024, MaxMem=  2684354560 cpu:               0.3 elap:               0.1
 (Enter /gpfs/fs1/soft/bebop/software/custom-built/gaussian/16-c.02/g16/l302.exe)
 NPDir=0 NMtPBC=     1 NCelOv=     1 NCel=       1 NClECP=     1 NCelD=      1
         NCelK=      1 NCelE2=     1 NClLst=     1 CellRange=     0.0.
 One-electron integrals computed using PRISM.
 One-electron integral symmetry used in STVInt
 NBasis=   296 RedAO= T EigKep=  2.62D-04  NBF=   296
 NBsUse=   296 1.00D-06 EigRej= -1.00D+00 NBFU=   296
 Precomputing XC quadrature grid using
 IXCGrd= 4 IRadAn=           5 IRanWt=          -1 IRanGd=           0 AccXCQ= 0.00D+00.
 Generated NRdTot=       0 NPtTot=           0 NUsed=           0 NTot=          32
 NSgBfM=   334   334   334   334   334 MxSgAt=    14 MxSgA2=    14.
 Leave Link  302 at Mon Oct 14 10:53:42 2024, MaxMem=  2684354560 cpu:               1.1 elap:               0.2
 (Enter /gpfs/fs1/soft/bebop/software/custom-built/gaussian/16-c.02/g16/l303.exe)
 DipDrv:  MaxL=1.
 Leave Link  303 at Mon Oct 14 10:53:42 2024, MaxMem=  2684354560 cpu:               0.2 elap:               0.1
 (Enter /gpfs/fs1/soft/bebop/software/custom-built/gaussian/16-c.02/g16/l401.exe)
 ExpMin= 1.03D-01 ExpMax= 4.56D+05 ExpMxC= 1.44D+03 IAcc=3 IRadAn=         5 AccDes= 0.00D+00
 Harris functional with IExCor=  419 and IRadAn=       5 diagonalized for initial guess.
 HarFok:  IExCor=  419 AccDes= 0.00D+00 IRadAn=         5 IDoV= 1 UseB2=F ITyADJ=14
 ICtDFT=  3500011 ScaDFX=  1.000000  1.000000  1.000000  1.000000
 FoFCou: FMM=F IPFlag=           0 FMFlag=      100000 FMFlg1=           0
         NFxFlg=           0 DoJE=T BraDBF=F KetDBF=T FulRan=T
         wScrn=  0.000000 ICntrl=       500 IOpCl=  0 I1Cent=   200000004 NGrid=           0
         NMat0=    1 NMatS0=      1 NMatT0=    0 NMatD0=    1 NMtDS0=    0 NMtDT0=    0
 Petite list used in FoFCou.
 Harris En= -692.666762346621    
 JPrj=0 DoOrth=F DoCkMO=F.
 Initial guess <Sx>= 0.0000 <Sy>= 0.0000 <Sz>= 0.5000 <S**2>= 0.7500 S= 0.5000
 Leave Link  401 at Mon Oct 14 10:53:43 2024, MaxMem=  2684354560 cpu:               4.9 elap:               0.8
 (Enter /gpfs/fs1/soft/bebop/software/custom-built/gaussian/16-c.02/g16/l502.exe)
 Keep R1 and R2 ints in memory in canonical form, NReq=1950973320.
 FoFCou: FMM=F IPFlag=           0 FMFlag=           0 FMFlg1=           0
         NFxFlg=           0 DoJE=F BraDBF=F KetDBF=F FulRan=T
         wScrn=  0.000000 ICntrl=       600 IOpCl=  0 I1Cent=           0 NGrid=           0
         NMat0=    1 NMatS0=  43956 NMatT0=    0 NMatD0=    1 NMtDS0=    0 NMtDT0=    0
 Symmetry not used in FoFCou.
 Two-electron integral symmetry not used.
 UHF open shell SCF:
 Using DIIS extrapolation, IDIIS=  1040.
 NGot=  2684354560 LenX=   751952220 LenY=   751840223
 Requested convergence on RMS density matrix=1.00D-08 within  32 cycles.
 Requested convergence on MAX density matrix=1.00D-06.
 Requested convergence on             energy=1.00D-06.
 No special actions if energy rises.
 Integral accuracy reduced to 1.0D-05 until final iterations.

 Cycle   1  Pass 0  IDiag  1:
 E= -691.804310590860    
 DIIS: error= 3.61D-02 at cycle   1 NSaved=   1.
 NSaved= 1 IEnMin= 1 EnMin= -691.804310590860     IErMin= 1 ErrMin= 3.61D-02
 ErrMax= 3.61D-02  0.00D+00 EMaxC= 1.00D-01 BMatC= 1.08D+00 BMatP= 1.08D+00
 IDIUse=3 WtCom= 6.39D-01 WtEn= 3.61D-01
 Coeff-Com:  0.100D+01
 Coeff-En:   0.100D+01
 Coeff:      0.100D+01
 Gap=     0.589 Goal=   None    Shift=    0.000
 Gap=     0.263 Goal=   None    Shift=    0.000
 GapD=    0.263 DampG=1.000 DampE=0.500 DampFc=0.5000 IDamp=-1.
 Damping current iteration by 5.00D-01
 RMSDP=1.50D-03 MaxDP=4.62D-02              OVMax= 1.49D-01

 Cycle   2  Pass 0  IDiag  1:
 E= -691.906729689084     Delta-E=       -0.102419098224 Rises=F Damp=T
 DIIS: error= 1.13D-02 at cycle   2 NSaved=   2.
 NSaved= 2 IEnMin= 2 EnMin= -691.906729689084     IErMin= 2 ErrMin= 1.13D-02
 ErrMax= 1.13D-02  0.00D+00 EMaxC= 1.00D-01 BMatC= 1.21D-01 BMatP= 1.08D+00
 IDIUse=3 WtCom= 8.87D-01 WtEn= 1.13D-01
 Coeff-Com: -0.254D+00 0.125D+01
 Coeff-En:   0.000D+00 0.100D+01
 Coeff:     -0.225D+00 0.123D+01
 Gap=     0.441 Goal=   None    Shift=    0.000
 Gap=     0.292 Goal=   None    Shift=    0.000
 RMSDP=4.21D-04 MaxDP=1.96D-02 DE=-1.02D-01 OVMax= 1.38D-01

 Cycle   3  Pass 0  IDiag  1:
 E= -691.997489998250     Delta-E=       -0.090760309166 Rises=F Damp=F
 DIIS: error= 3.83D-03 at cycle   3 NSaved=   3.
 NSaved= 3 IEnMin= 3 EnMin= -691.997489998250     IErMin= 3 ErrMin= 3.83D-03
 ErrMax= 3.83D-03  0.00D+00 EMaxC= 1.00D-01 BMatC= 1.87D-02 BMatP= 1.21D-01
 IDIUse=3 WtCom= 9.62D-01 WtEn= 3.83D-02
 Coeff-Com: -0.136D+00 0.342D+00 0.793D+00
 Coeff-En:   0.000D+00 0.000D+00 0.100D+01
 Coeff:     -0.131D+00 0.329D+00 0.801D+00
 Gap=     0.425 Goal=   None    Shift=    0.000
 Gap=     0.254 Goal=   None    Shift=    0.000
 RMSDP=2.05D-04 MaxDP=9.24D-03 DE=-9.08D-02 OVMax= 3.12D-02

 Cycle   4  Pass 0  IDiag  1:
 E= -692.000183661533     Delta-E=       -0.002693663283 Rises=F Damp=F
 DIIS: error= 2.08D-03 at cycle   4 NSaved=   4.
 NSaved= 4 IEnMin= 4 EnMin= -692.000183661533     IErMin= 4 ErrMin= 2.08D-03
 ErrMax= 2.08D-03  0.00D+00 EMaxC= 1.00D-01 BMatC= 7.11D-03 BMatP= 1.87D-02
 IDIUse=3 WtCom= 9.79D-01 WtEn= 2.08D-02
 Coeff-Com: -0.564D-01 0.109D+00 0.434D+00 0.513D+00
 Coeff-En:   0.000D+00 0.000D+00 0.192D+00 0.808D+00
 Coeff:     -0.552D-01 0.107D+00 0.429D+00 0.519D+00
 Gap=     0.418 Goal=   None    Shift=    0.000
 Gap=     0.252 Goal=   None    Shift=    0.000
 RMSDP=8.89D-05 MaxDP=5.13D-03 DE=-2.69D-03 OVMax= 2.41D-02

 Cycle   5  Pass 0  IDiag  1:
 E= -692.001567208377     Delta-E=       -0.001383546844 Rises=F Damp=F
 DIIS: error= 4.82D-04 at cycle   5 NSaved=   5.
 NSaved= 5 IEnMin= 5 EnMin= -692.001567208377     IErMin= 5 ErrMin= 4.82D-04
 ErrMax= 4.82D-04  0.00D+00 EMaxC= 1.00D-01 BMatC= 4.54D-04 BMatP= 7.11D-03
 IDIUse=3 WtCom= 9.95D-01 WtEn= 4.82D-03
 Coeff-Com: -0.559D-02 0.283D-02 0.563D-01 0.216D+00 0.730D+00
 Coeff-En:   0.000D+00 0.000D+00 0.000D+00 0.000D+00 0.100D+01
 Coeff:     -0.557D-02 0.281D-02 0.561D-01 0.215D+00 0.731D+00
 Gap=     0.417 Goal=   None    Shift=    0.000
 Gap=     0.253 Goal=   None    Shift=    0.000
 RMSDP=2.59D-05 MaxDP=1.26D-03 DE=-1.38D-03 OVMax= 7.17D-03

 Cycle   6  Pass 0  IDiag  1:
 E= -692.001680878731     Delta-E=       -0.000113670353 Rises=F Damp=F
 DIIS: error= 2.17D-04 at cycle   6 NSaved=   6.
 NSaved= 6 IEnMin= 6 EnMin= -692.001680878731     IErMin= 6 ErrMin= 2.17D-04
 ErrMax= 2.17D-04  0.00D+00 EMaxC= 1.00D-01 BMatC= 5.18D-05 BMatP= 4.54D-04
 IDIUse=3 WtCom= 9.98D-01 WtEn= 2.17D-03
 Coeff-Com:  0.602D-02-0.129D-01-0.560D-01 0.681D-02 0.125D+00 0.931D+00
 Coeff-En:   0.000D+00 0.000D+00 0.000D+00 0.000D+00 0.000D+00 0.100D+01
 Coeff:      0.600D-02-0.129D-01-0.559D-01 0.679D-02 0.124D+00 0.932D+00
 Gap=     0.417 Goal=   None    Shift=    0.000
 Gap=     0.255 Goal=   None    Shift=    0.000
 RMSDP=1.98D-05 MaxDP=1.19D-03 DE=-1.14D-04 OVMax= 6.17D-03

 Cycle   7  Pass 0  IDiag  1:
 E= -692.001715371377     Delta-E=       -0.000034492647 Rises=F Damp=F
 DIIS: error= 1.15D-04 at cycle   7 NSaved=   7.
 NSaved= 7 IEnMin= 7 EnMin= -692.001715371377     IErMin= 7 ErrMin= 1.15D-04
 ErrMax= 1.15D-04  0.00D+00 EMaxC= 1.00D-01 BMatC= 1.62D-05 BMatP= 5.18D-05
 IDIUse=3 WtCom= 9.99D-01 WtEn= 1.15D-03
 Coeff-Com:  0.120D-02-0.317D-03-0.252D-01-0.233D-01-0.145D+00 0.115D+00
 Coeff-Com:  0.108D+01
 Coeff-En:   0.000D+00 0.000D+00 0.000D+00 0.000D+00 0.000D+00 0.000D+00
 Coeff-En:   0.100D+01
 Coeff:      0.120D-02-0.316D-03-0.252D-01-0.232D-01-0.145D+00 0.114D+00
 Coeff:      0.108D+01
 Gap=     0.417 Goal=   None    Shift=    0.000
 Gap=     0.255 Goal=   None    Shift=    0.000
 RMSDP=1.44D-05 MaxDP=8.01D-04 DE=-3.45D-05 OVMax= 5.16D-03

 Cycle   8  Pass 0  IDiag  1:
 E= -692.001730012315     Delta-E=       -0.000014640938 Rises=F Damp=F
 DIIS: error= 6.61D-05 at cycle   8 NSaved=   8.
 NSaved= 8 IEnMin= 8 EnMin= -692.001730012315     IErMin= 8 ErrMin= 6.61D-05
 ErrMax= 6.61D-05  0.00D+00 EMaxC= 1.00D-01 BMatC= 4.13D-06 BMatP= 1.62D-05
 IDIUse=1 WtCom= 1.00D+00 WtEn= 0.00D+00
 Coeff-Com: -0.217D-02 0.489D-02 0.132D-01 0.114D-01-0.281D-01-0.291D+00
 Coeff-Com:  0.536D-01 0.124D+01
 Coeff:     -0.217D-02 0.489D-02 0.132D-01 0.114D-01-0.281D-01-0.291D+00
 Coeff:      0.536D-01 0.124D+01
 Gap=     0.417 Goal=   None    Shift=    0.000
 Gap=     0.256 Goal=   None    Shift=    0.000
 RMSDP=1.03D-05 MaxDP=6.90D-04 DE=-1.46D-05 OVMax= 3.26D-03

 Cycle   9  Pass 0  IDiag  1:
 E= -692.001735055365     Delta-E=       -0.000005043050 Rises=F Damp=F
 DIIS: error= 5.27D-05 at cycle   9 NSaved=   9.
 NSaved= 9 IEnMin= 9 EnMin= -692.001735055365     IErMin= 9 ErrMin= 5.27D-05
 ErrMax= 5.27D-05  0.00D+00 EMaxC= 1.00D-01 BMatC= 6.23D-07 BMatP= 4.13D-06
 IDIUse=1 WtCom= 1.00D+00 WtEn= 0.00D+00
 Coeff-Com: -0.564D-03 0.620D-03 0.688D-02 0.101D-01 0.345D-01-0.500D-01
 Coeff-Com: -0.242D+00 0.619D-01 0.118D+01
 Coeff:     -0.564D-03 0.620D-03 0.688D-02 0.101D-01 0.345D-01-0.500D-01
 Coeff:     -0.242D+00 0.619D-01 0.118D+01
 Gap=     0.417 Goal=   None    Shift=    0.000
 Gap=     0.256 Goal=   None    Shift=    0.000
 RMSDP=5.09D-06 MaxDP=4.66D-04 DE=-5.04D-06 OVMax= 1.70D-03

 Initial convergence to 1.0D-05 achieved.  Increase integral accuracy.
 Cycle  10  Pass 1  IDiag  1:
 E= -692.001739839753     Delta-E=       -0.000004784388 Rises=F Damp=F
 DIIS: error= 3.80D-05 at cycle   1 NSaved=   1.
 NSaved= 1 IEnMin= 1 EnMin= -692.001739839753     IErMin= 1 ErrMin= 3.80D-05
 ErrMax= 3.80D-05  0.00D+00 EMaxC= 1.00D-01 BMatC= 2.74D-07 BMatP= 2.74D-07
 IDIUse=1 WtCom= 1.00D+00 WtEn= 0.00D+00
 Coeff-Com:  0.100D+01
 Coeff:      0.100D+01
 Gap=     0.417 Goal=   None    Shift=    0.000
 Gap=     0.256 Goal=   None    Shift=    0.000
 RMSDP=5.09D-06 MaxDP=4.66D-04 DE=-4.78D-06 OVMax= 7.96D-04

 Cycle  11  Pass 1  IDiag  1:
 E= -692.001740236383     Delta-E=       -0.000000396630 Rises=F Damp=F
 DIIS: error= 3.34D-05 at cycle   2 NSaved=   2.
 NSaved= 2 IEnMin= 2 EnMin= -692.001740236383     IErMin= 2 ErrMin= 3.34D-05
 ErrMax= 3.34D-05  0.00D+00 EMaxC= 1.00D-01 BMatC= 1.29D-07 BMatP= 2.74D-07
 IDIUse=1 WtCom= 1.00D+00 WtEn= 0.00D+00
 Coeff-Com: -0.263D+00 0.126D+01
 Coeff:     -0.263D+00 0.126D+01
 Gap=     0.417 Goal=   None    Shift=    0.000
 Gap=     0.256 Goal=   None    Shift=    0.000
 RMSDP=1.98D-06 MaxDP=2.01D-04 DE=-3.97D-07 OVMax= 8.79D-04

 Cycle  12  Pass 1  IDiag  1:
 E= -692.001740584348     Delta-E=       -0.000000347966 Rises=F Damp=F
 DIIS: error= 2.80D-05 at cycle   3 NSaved=   3.
 NSaved= 3 IEnMin= 3 EnMin= -692.001740584348     IErMin= 3 ErrMin= 2.80D-05
 ErrMax= 2.80D-05  0.00D+00 EMaxC= 1.00D-01 BMatC= 8.90D-08 BMatP= 1.29D-07
 IDIUse=1 WtCom= 1.00D+00 WtEn= 0.00D+00
 Coeff-Com: -0.238D+00-0.484D+00 0.172D+01
 Coeff:     -0.238D+00-0.484D+00 0.172D+01
 Gap=     0.417 Goal=   None    Shift=    0.000
 Gap=     0.256 Goal=   None    Shift=    0.000
 RMSDP=2.93D-06 MaxDP=2.93D-04 DE=-3.48D-07 OVMax= 1.30D-03

 Cycle  13  Pass 1  IDiag  1:
 E= -692.001740978795     Delta-E=       -0.000000394447 Rises=F Damp=F
 DIIS: error= 2.02D-05 at cycle   4 NSaved=   4.
 NSaved= 4 IEnMin= 4 EnMin= -692.001740978795     IErMin= 4 ErrMin= 2.02D-05
 ErrMax= 2.02D-05  0.00D+00 EMaxC= 1.00D-01 BMatC= 4.83D-08 BMatP= 8.90D-08
 IDIUse=1 WtCom= 1.00D+00 WtEn= 0.00D+00
 Coeff-Com:  0.179D+00-0.162D+01 0.735D+00 0.171D+01
 Coeff:      0.179D+00-0.162D+01 0.735D+00 0.171D+01
 Gap=     0.417 Goal=   None    Shift=    0.000
 Gap=     0.256 Goal=   None    Shift=    0.000
 RMSDP=4.90D-06 MaxDP=4.96D-04 DE=-3.94D-07 OVMax= 2.20D-03

 Cycle  14  Pass 1  IDiag  1:
 E= -692.001741334442     Delta-E=       -0.000000355647 Rises=F Damp=F
 DIIS: error= 5.52D-06 at cycle   5 NSaved=   5.
 NSaved= 5 IEnMin= 5 EnMin= -692.001741334442     IErMin= 5 ErrMin= 5.52D-06
 ErrMax= 5.52D-06  0.00D+00 EMaxC= 1.00D-01 BMatC= 1.67D-08 BMatP= 4.83D-08
 IDIUse=1 WtCom= 1.00D+00 WtEn= 0.00D+00
 Coeff-Com:  0.151D+00-0.878D+00 0.115D+00 0.100D+01 0.609D+00
 Coeff:      0.151D+00-0.878D+00 0.115D+00 0.100D+01 0.609D+00
 Gap=     0.417 Goal=   None    Shift=    0.000
 Gap=     0.256 Goal=   None    Shift=    0.000
 RMSDP=1.17D-06 MaxDP=1.17D-04 DE=-3.56D-07 OVMax= 5.23D-04

 Cycle  15  Pass 1  IDiag  1:
 E= -692.001741365095     Delta-E=       -0.000000030653 Rises=F Damp=F
 DIIS: error= 2.86D-06 at cycle   6 NSaved=   6.
 NSaved= 6 IEnMin= 6 EnMin= -692.001741365095     IErMin= 6 ErrMin= 2.86D-06
 ErrMax= 2.86D-06  0.00D+00 EMaxC= 1.00D-01 BMatC= 3.03D-09 BMatP= 1.67D-08
 IDIUse=1 WtCom= 1.00D+00 WtEn= 0.00D+00
 Coeff-Com: -0.651D-01 0.630D+00-0.303D+00-0.660D+00 0.317D-01 0.137D+01
 Coeff:     -0.651D-01 0.630D+00-0.303D+00-0.660D+00 0.317D-01 0.137D+01
 Gap=     0.417 Goal=   None    Shift=    0.000
 Gap=     0.256 Goal=   None    Shift=    0.000
 RMSDP=6.74D-07 MaxDP=6.68D-05 DE=-3.07D-08 OVMax= 3.00D-04

 Cycle  16  Pass 1  IDiag  1:
 E= -692.001741373340     Delta-E=       -0.000000008245 Rises=F Damp=F
 DIIS: error= 8.02D-07 at cycle   7 NSaved=   7.
 NSaved= 7 IEnMin= 7 EnMin= -692.001741373340     IErMin= 7 ErrMin= 8.02D-07
 ErrMax= 8.02D-07  0.00D+00 EMaxC= 1.00D-01 BMatC= 7.08D-10 BMatP= 3.03D-09
 IDIUse=1 WtCom= 1.00D+00 WtEn= 0.00D+00
 Coeff-Com: -0.697D-01 0.495D+00-0.143D+00-0.547D+00-0.163D+00 0.443D+00
 Coeff-Com:  0.984D+00
 Coeff:     -0.697D-01 0.495D+00-0.143D+00-0.547D+00-0.163D+00 0.443D+00
 Coeff:      0.984D+00
 Gap=     0.417 Goal=   None    Shift=    0.000
 Gap=     0.256 Goal=   None    Shift=    0.000
 RMSDP=2.65D-07 MaxDP=2.50D-05 DE=-8.25D-09 OVMax= 1.15D-04

 Cycle  17  Pass 1  IDiag  1:
 E= -692.001741374490     Delta-E=       -0.000000001149 Rises=F Damp=F
 DIIS: error= 2.63D-07 at cycle   8 NSaved=   8.
 NSaved= 8 IEnMin= 8 EnMin= -692.001741374490     IErMin= 8 ErrMin= 2.63D-07
 ErrMax= 2.63D-07  0.00D+00 EMaxC= 1.00D-01 BMatC= 7.60D-11 BMatP= 7.08D-10
 IDIUse=1 WtCom= 1.00D+00 WtEn= 0.00D+00
 Coeff-Com:  0.585D-02-0.690D-01 0.388D-01 0.723D-01-0.107D-02-0.218D+00
 Coeff-Com:  0.726D-01 0.110D+01
 Coeff:      0.585D-02-0.690D-01 0.388D-01 0.723D-01-0.107D-02-0.218D+00
 Coeff:      0.726D-01 0.110D+01
 Gap=     0.417 Goal=   None    Shift=    0.000
 Gap=     0.256 Goal=   None    Shift=    0.000
 RMSDP=4.46D-08 MaxDP=3.37D-06 DE=-1.15D-09 OVMax= 1.52D-05

 Cycle  18  Pass 1  IDiag  1:
 E= -692.001741374561     Delta-E=       -0.000000000072 Rises=F Damp=F
 DIIS: error= 1.32D-07 at cycle   9 NSaved=   9.
 NSaved= 9 IEnMin= 9 EnMin= -692.001741374561     IErMin= 9 ErrMin= 1.32D-07
 ErrMax= 1.32D-07  0.00D+00 EMaxC= 1.00D-01 BMatC= 1.08D-11 BMatP= 7.60D-11
 IDIUse=1 WtCom= 1.00D+00 WtEn= 0.00D+00
 Coeff-Com:  0.106D-01-0.775D-01 0.234D-01 0.859D-01 0.321D-01-0.900D-01
 Coeff-Com: -0.138D+00 0.800D-01 0.107D+01
 Coeff:      0.106D-01-0.775D-01 0.234D-01 0.859D-01 0.321D-01-0.900D-01
 Coeff:     -0.138D+00 0.800D-01 0.107D+01
 Gap=     0.417 Goal=   None    Shift=    0.000
 Gap=     0.256 Goal=   None    Shift=    0.000
 RMSDP=1.22D-08 MaxDP=5.49D-07 DE=-7.16D-11 OVMax= 2.74D-06

 Cycle  19  Pass 1  IDiag  1:
 E= -692.001741374572     Delta-E=       -0.000000000010 Rises=F Damp=F
 DIIS: error= 4.03D-08 at cycle  10 NSaved=  10.
 NSaved=10 IEnMin=10 EnMin= -692.001741374572     IErMin=10 ErrMin= 4.03D-08
 ErrMax= 4.03D-08  0.00D+00 EMaxC= 1.00D-01 BMatC= 1.69D-12 BMatP= 1.08D-11
 IDIUse=1 WtCom= 1.00D+00 WtEn= 0.00D+00
 Coeff-Com: -0.325D-03 0.637D-02-0.511D-02-0.647D-02 0.622D-02 0.193D-01
 Coeff-Com: -0.153D-01-0.141D+00 0.558D-01 0.108D+01
 Coeff:     -0.325D-03 0.637D-02-0.511D-02-0.647D-02 0.622D-02 0.193D-01
 Coeff:     -0.153D-01-0.141D+00 0.558D-01 0.108D+01
 Gap=     0.417 Goal=   None    Shift=    0.000
 Gap=     0.256 Goal=   None    Shift=    0.000
 RMSDP=5.19D-09 MaxDP=4.13D-07 DE=-1.02D-11 OVMax= 1.43D-06

 SCF Done:  E(UB2PLYPD3) =  -692.001741375     A.U. after   19 cycles
            NFock= 19  Conv=0.52D-08     -V/T= 2.0026
 <Sx>= 0.0000 <Sy>= 0.0000 <Sz>= 0.5000 <S**2>= 0.7569 S= 0.5034
 <L.S>=  0.00000000000    
 KE= 6.901936546338D+02 PE=-2.213303676183D+03 EE= 5.422523404787D+02
 Annihilation of the first spin contaminant:
 S**2 before annihilation     0.7569,   after     0.7500
 Leave Link  502 at Mon Oct 14 10:54:59 2024, MaxMem=  2684354560 cpu:             205.9 elap:              76.7
 (Enter /gpfs/fs1/soft/bebop/software/custom-built/gaussian/16-c.02/g16/l508.exe)
 QCSCF skips out because SCF is already converged.
 Leave Link  508 at Mon Oct 14 10:55:00 2024, MaxMem=  2684354560 cpu:               0.0 elap:               0.0
 (Enter /gpfs/fs1/soft/bebop/software/custom-built/gaussian/16-c.02/g16/l801.exe)
 DoSCS=T DFT=T ScalE2(SS,OS)=  0.270000  0.270000
 ExpMin= 1.03D-01 ExpMax= 4.56D+05 ExpMxC= 1.44D+03 IAcc=3 IRadAn=         5 AccDes= 0.00D+00
 HarFok:  IExCor=  205 AccDes= 0.00D+00 IRadAn=         5 IDoV=-2 UseB2=F ITyADJ=14
 ICtDFT= 12500011 ScaDFX=  1.000000  1.000000  1.000000  1.000000
 Largest valence mixing into a core orbital is  1.85D-04
 Largest core mixing into a valence orbital is  6.84D-05
 Largest valence mixing into a core orbital is  1.94D-04
 Largest core mixing into a valence orbital is  8.14D-05
 Range of M.O.s used for correlation:    11   296
 NBasis=   296 NAE=    29 NBE=    28 NFC=    10 NFV=     0
 NROrb=    286 NOA=    19 NOB=    18 NVA=   267 NVB=   268

 **** Warning!!: The largest alpha MO coefficient is  0.13776911D+02


 **** Warning!!: The largest beta MO coefficient is  0.13739985D+02

 Leave Link  801 at Mon Oct 14 10:55:00 2024, MaxMem=  2684354560 cpu:               0.5 elap:               0.1
 (Enter /gpfs/fs1/soft/bebop/software/custom-built/gaussian/16-c.02/g16/l906.exe)
 DoSCS=T DFT=T ScalE2(SS,OS)=  0.270000  0.270000
 Frozen-core derivative calculation, NFC=  10 NFV=   0.
 FulOut=F Deriv=T AODrv=T NAtomX=    14
   MMem=          23  MDisk=          19 MDiskD=          19
  W3Min=     5734112 MinDsk=     4243203 NBas6D=         334
 NBas2D=       56620    NTT=       55945    LW2=     3500000
    MDV=  2682934545 MDiskM=       40133 NBas2p=       54743
 Fully direct method using O(ONN) memory.
 IMap=   1   2   3   4   5   6   7   8   9  10  11  12  13  14  15  16  17  18  19  20
 IMap=  21  22  23  24  25  26  27  28  29
 JobTyp=2 Pass  1:  I=  11 to  29 NPSUse=  6 ParTrn=T ParDer=T DoDerP=T.
 IMap=   1   2   3   4   5   6   7   8   9  10  11  12  13  14  15  16  17  18  19  20
 IMap=  21  22  23  24  25  26  27  28
 JobTyp=3 Pass  1:  I=  11 to  28 NPSUse=  6 ParTrn=T ParDer=T DoDerP=T.
 Spin components of T(2) and E(2):
     alpha-alpha T2 =       0.6615930394D-01 E2=     -0.4479373775D-01
     alpha-beta  T2 =       0.3818627135D+00 E2=     -0.2737590717D+00
     beta-beta   T2 =       0.6748557122D-01 E2=     -0.4277043612D-01
 The integrals were generated   2 times.
 (S**2,0)=  0.75688D+00           (S**2,1)=  0.74528D+00
 Scaling Projection term by:   0.270000
 E(PUHF)=      -0.69200496484D+03        E(PMP2)=      -0.69236320356D+03
 E2(B2PLYPD3) =    -0.3613232456D+00 E(B2PLYPD3) =    -0.69236306462018D+03
 Leave Link  906 at Mon Oct 14 10:57:14 2024, MaxMem=  2684354560 cpu:             805.1 elap:             134.5
 (Enter /gpfs/fs1/soft/bebop/software/custom-built/gaussian/16-c.02/g16/l1002.exe)
 Minotr:  UHF open shell wavefunction.
          Computing MP2/KS-MP2 derivatives.
          Using Z-Vector for PSCF gradient.
          Skipping F1 and S1 gradient terms here.
          IDoAtm=11111111111111
          Frozen-core window.
          Direct CPHF calculation.
          Differentiating once with respect to electric field.
                with respect to dipole field.
          Differentiating once with respect to nuclear coordinates.
          Requested convergence is 1.0D-10 RMS, and 1.0D-09 maximum.
          NewPWx=F KeepS1=T KeepF1=T KeepIn=T MapXYZ=F SortEE=F KeepMc=T.
 Keep R1 and R2 ints in memory in canonical form, NReq=1950975864.
 FoFCou: FMM=F IPFlag=           0 FMFlag=           0 FMFlg1=           0
         NFxFlg=           0 DoJE=F BraDBF=F KetDBF=F FulRan=T
         wScrn=  0.000000 ICntrl=       600 IOpCl=  0 I1Cent=           0 NGrid=           0
         NMat0=    1 NMatS0=  43956 NMatT0=    0 NMatD0=    1 NMtDS0=    0 NMtDT0=    0
 Symmetry not used in FoFCou.
 Two-electron integral symmetry not used.
          MDV=    2684354560 using IRadAn=       5.
          Solving linear equations separately, MaxMat=       0.
          There are     1 degrees of freedom in the 1st order CPHF.  IDoFFX=0 NUNeed=     1.
