 Entering Gaussian System, Link 0=g16
 Input=run.inp
 Output=run.out
 Initial command:
 /gpfs/fs1/soft/bebop/software/custom-built/gaussian/16-c.02/g16/l1.exe "/scratch/Gau-1826946.inp" -scrdir="/scratch/"
 Default CPUs for threads: 0-35
 Default is to use a total of  36 processors:
                               36 via shared-memory
                                1 via Linda
 Entering Link 1 = /gpfs/fs1/soft/bebop/software/custom-built/gaussian/16-c.02/g16/l1.exe PID=   1826950.
  
 Copyright (c) 1988-2019, Gaussian, Inc.  All Rights Reserved.
  
 This is part of the Gaussian(R) 16 program.  It is based on
 the Gaussian(R) 09 system (copyright 2009, Gaussian, Inc.),
 the Gaussian(R) 03 system (copyright 2003, Gaussian, Inc.),
 the Gaussian(R) 98 system (copyright 1998, Gaussian, Inc.),
 the Gaussian(R) 94 system (copyright 1995, Gaussian, Inc.),
 the Gaussian 92(TM) system (copyright 1992, Gaussian, Inc.),
 the Gaussian 90(TM) system (copyright 1990, Gaussian, Inc.),
 the Gaussian 88(TM) system (copyright 1988, Gaussian, Inc.),
 the Gaussian 86(TM) system (copyright 1986, Carnegie Mellon
 University), and the Gaussian 82(TM) system (copyright 1983,
 Carnegie Mellon University). Gaussian is a federally registered
 trademark of Gaussian, Inc.
  
 This software contains proprietary and confidential information,
 including trade secrets, belonging to Gaussian, Inc.
  
 This software is provided under written license and may be
 used, copied, transmitted, or stored only in accord with that
 written license.
  
 The following legend is applicable only to US Government
 contracts under FAR:
  
                    RESTRICTED RIGHTS LEGEND
  
 Use, reproduction and disclosure by the US Government is
 subject to restrictions as set forth in subparagraphs (a)
 and (c) of the Commercial Computer Software - Restricted
 Rights clause in FAR 52.227-19.
  
 Gaussian, Inc.
 340 Quinnipiac St., Bldg. 40, Wallingford CT 06492
  
  
 ---------------------------------------------------------------
 Warning -- This program may not be used in any manner that
 competes with the business of Gaussian, Inc. or will provide
 assistance to any competitor of Gaussian, Inc.  The licensee
 of this program is prohibited from giving any competitor of
 Gaussian, Inc. access to this program.  By using this program,
 the user acknowledges that Gaussian, Inc. is engaged in the
 business of creating and licensing software in the field of
 computational chemistry and represents and warrants to the
 licensee that it is not a competitor of Gaussian, Inc. and that
 it will not use this program in any manner prohibited above.
 ---------------------------------------------------------------
  

 Cite this work as:
 Gaussian 16, Revision C.01,
 M. J. Frisch, G. W. Trucks, H. B. Schlegel, G. E. Scuseria, 
 M. A. Robb, J. R. Cheeseman, G. Scalmani, V. Barone, 
 G. A. Petersson, H. Nakatsuji, X. Li, M. Caricato, A. V. Marenich, 
 J. Bloino, B. G. Janesko, R. Gomperts, B. Mennucci, H. P. Hratchian, 
 J. V. Ortiz, A. F. Izmaylov, J. L. Sonnenberg, D. Williams-Young, 
 F. Ding, F. Lipparini, F. Egidi, J. Goings, B. Peng, A. Petrone, 
 T. Henderson, D. Ranasinghe, V. G. Zakrzewski, J. Gao, N. Rega, 
 G. Zheng, W. Liang, M. Hada, M. Ehara, K. Toyota, R. Fukuda, 
 J. Hasegawa, M. Ishida, T. Nakajima, Y. Honda, O. Kitao, H. Nakai, 
 T. Vreven, K. Throssell, J. A. Montgomery, Jr., J. E. Peralta, 
 F. Ogliaro, M. J. Bearpark, J. J. Heyd, E. N. Brothers, K. N. Kudin, 
 V. N. Staroverov, T. A. Keith, R. Kobayashi, J. Normand, 
 K. Raghavachari, A. P. Rendell, J. C. Burant, S. S. Iyengar, 
 J. Tomasi, M. Cossi, J. M. Millam, M. Klene, C. Adamo, R. Cammi, 
 J. W. Ochterski, R. L. Martin, K. Morokuma, O. Farkas, 
 J. B. Foresman, and D. J. Fox, Gaussian, Inc., Wallingford CT, 2019.
 
 ******************************************
 Gaussian 16:  ES64L-G16RevC.01  3-Jul-2019
                 8-Oct-2024 
 ******************************************
 %mem=20GB
 %NProcShared=6
 Will use up to    6 processors via shared memory.
 ---------------------------------------------------------
 #P b2plypd3/cc-pvtz # SCF=(xqc) # POpt=() # int=ultrafine
 ---------------------------------------------------------
 1/10=7,38=1/1,3;
 2/12=2,17=6,18=5,29=3,40=1/2;
 3/5=16,6=1,11=9,25=1,30=1,71=1,74=-60,75=-5/1,2,3;
 4//1;
 5/5=2,8=3,13=1,38=5/2,8;
 8/6=4,10=1/1;
 9/15=2,16=-3/6;
 10/5=1/2;
 6/7=2,8=2,9=2,10=2/1;
 7/12=2,29=1/1,2,3,16;
 1/10=7/3(2);
 2/29=3/2;
 99//99;
 2/29=3/2;
 3/5=16,6=1,11=9,25=1,30=1,71=1,74=-60,75=-5/1,2,3;
 4/5=5,16=3,69=1/1;
 5/5=2,8=3,13=1,38=5/2,8;
 8/6=4,10=1/1;
 9/15=2,16=-3/6;
 10/5=1/2;
 7/12=2/1,2,3,16;
 1//3(-8);
 2/29=3/2;
 6/7=2,8=2,9=2,10=2/1;
 99/9=10/99;
 Leave Link    1 at Tue Oct  8 13:19:15 2024, MaxMem=  2684354560 cpu:               0.5 elap:               0.0
 (Enter /gpfs/fs1/soft/bebop/software/custom-built/gaussian/16-c.02/g16/l101.exe)
 --------
 comment:
 --------
 Symbolic Z-matrix:
 Charge =  0 Multiplicity = 2
 C
 C                    1    R1
 C                    1    R2       2    A2
 H                    1    R3       2    A3       3    D3       0
 O                    3    R4       1    A4       2    D4       0
 C                    3    R5       1    A5       5    D5       0
 H                    3    R6       1    A6       5    D6       0
 H                    2    R7       1    A7       3    D7       0
 H                    2    R8       1    A8       8    D8       0
 H                    2    R9       1    A9       8    D9       0
 H                    6    R10      3    A10      1    D10      0
 H                    6    R11      3    A11      11   D11      0
 H                    6    R12      3    A12      11   D12      0
 X                    7    R13      3    A13      1    D13      0
 Cl                   7    R14      14   A14      3    D14      0
       Variables:
  R1                    1.4979                   
  R2                    1.5057                   
  R3                    1.0836                   
  R4                    1.4335                   
  R5                    1.4986                   
  R6                    1.083                    
  R7                    1.0887                   
  R8                    1.0897                   
  R9                    1.0852                   
  R10                   1.0853                   
  R11                   1.0881                   
  R12                   1.0896                   
  R14                   2.5607                   
  A2                  123.4867                   
  A3                  114.9051                   
  A4                   58.1338                   
  A5                  123.8345                   
  A6                  116.6871                   
  A7                  109.8366                   
  A8                  109.3007                   
  A9                  112.1094                   
  A10                 112.0877                   
  A11                 110.0254                   
  A12                 109.1362                   
  A14                 102.294                    
  D3                  205.042                    
  D4                  104.7887                   
  D5                  256.3795                   
  D6                  101.2999                   
  D7                   96.1955                   
  D8                  118.6659                   
  D9                  238.5029                   
  D10                  22.5118                   
  D11                 238.4288                   
  D12                 119.6697                   
  D14                  88.6409                   
       Constants:
  R13                   1.                       
  A13                  90.                       
  D13                 164.9635                   
 
 ITRead=  0  0  0  0  0  0  0  0  0  0  0  0  0  0
 MicOpt= -1 -1 -1 -1 -1 -1 -1 -1 -1 -1 -1 -1 -1 -1
 NAtoms=     14 NQM=       14 NQMF=       0 NMMI=      0 NMMIF=      0
                NMic=       0 NMicF=      0.
                    Isotopes and Nuclear Properties:
 (Nuclear quadrupole moments (NQMom) in fm**2, nuclear magnetic moments (NMagM)
  in nuclear magnetons)

  Atom         1           2           3           4           5           6           7           8           9          10
 IAtWgt=          12          12          12           1          16          12           1           1           1           1
 AtmWgt=  12.0000000  12.0000000  12.0000000   1.0078250  15.9949146  12.0000000   1.0078250   1.0078250   1.0078250   1.0078250
 NucSpn=           0           0           0           1           0           0           1           1           1           1
 AtZEff=  -0.0000000  -0.0000000  -0.0000000  -0.0000000  -0.0000000  -0.0000000  -0.0000000  -0.0000000  -0.0000000  -0.0000000
 NQMom=    0.0000000   0.0000000   0.0000000   0.0000000   0.0000000   0.0000000   0.0000000   0.0000000   0.0000000   0.0000000
 NMagM=    0.0000000   0.0000000   0.0000000   2.7928460   0.0000000   0.0000000   2.7928460   2.7928460   2.7928460   2.7928460
 AtZNuc=   6.0000000   6.0000000   6.0000000   1.0000000   8.0000000   6.0000000   1.0000000   1.0000000   1.0000000   1.0000000

  Atom        11          12          13          14
 IAtWgt=           1           1           1          35
 AtmWgt=   1.0078250   1.0078250   1.0078250  34.9688527
 NucSpn=           1           1           1           3
 AtZEff=  -0.0000000  -0.0000000  -0.0000000  -0.0000000
 NQMom=    0.0000000   0.0000000   0.0000000  -8.1650000
 NMagM=    2.7928460   2.7928460   2.7928460   0.8218740
 AtZNuc=   1.0000000   1.0000000   1.0000000  17.0000000
 Leave Link  101 at Tue Oct  8 13:19:15 2024, MaxMem=  2684354560 cpu:               0.6 elap:               0.1
 (Enter /gpfs/fs1/soft/bebop/software/custom-built/gaussian/16-c.02/g16/l103.exe)

 GradGradGradGradGradGradGradGradGradGradGradGradGradGradGradGradGradGrad
 Berny optimization.
 Initialization pass.
                       ----------------------------
                       !    Initial Parameters    !
                       ! (Angstroms and Degrees)  !
 ----------------------                            ----------------------
 !      Name          Value   Derivative information (Atomic Units)     !
 ------------------------------------------------------------------------
 !       R1          1.4979   estimate D2E/DX2                          !
 !       R2          1.5057   estimate D2E/DX2                          !
 !       R3          1.0836   estimate D2E/DX2                          !
 !       R4          1.4335   estimate D2E/DX2                          !
 !       R5          1.4986   estimate D2E/DX2                          !
 !       R6          1.083    estimate D2E/DX2                          !
 !       R7          1.0887   estimate D2E/DX2                          !
 !       R8          1.0897   estimate D2E/DX2                          !
 !       R9          1.0852   estimate D2E/DX2                          !
 !       R10         1.0853   estimate D2E/DX2                          !
 !       R11         1.0881   estimate D2E/DX2                          !
 !       R12         1.0896   estimate D2E/DX2                          !
 !       R14         2.5607   estimate D2E/DX2                          !
 !       A2        123.4867   estimate D2E/DX2                          !
 !       A3        114.9051   estimate D2E/DX2                          !
 !       A4         58.1338   estimate D2E/DX2                          !
 !       A5        123.8345   estimate D2E/DX2                          !
 !       A6        116.6871   estimate D2E/DX2                          !
 !       A7        109.8366   estimate D2E/DX2                          !
 !       A8        109.3007   estimate D2E/DX2                          !
 !       A9        112.1094   estimate D2E/DX2                          !
 !       A10       112.0877   estimate D2E/DX2                          !
 !       A11       110.0254   estimate D2E/DX2                          !
 !       A12       109.1362   estimate D2E/DX2                          !
 !       A14       102.294    estimate D2E/DX2                          !
 !       D3        205.042    estimate D2E/DX2                          !
 !       D4        104.7887   estimate D2E/DX2                          !
 !       D5        256.3795   estimate D2E/DX2                          !
 !       D6        101.2999   estimate D2E/DX2                          !
 !       D7         96.1955   estimate D2E/DX2                          !
 !       D8        118.6659   estimate D2E/DX2                          !
 !       D9        238.5029   estimate D2E/DX2                          !
 !       D10        22.5118   estimate D2E/DX2                          !
 !       D11       238.4288   estimate D2E/DX2                          !
 !       D12       119.6697   estimate D2E/DX2                          !
 !       D14        88.6409   estimate D2E/DX2                          !
 !       R13         1.0      Frozen                                    !
 !       A13        90.0      Frozen                                    !
 !       D13       164.9635   Frozen                                    !
 ------------------------------------------------------------------------
 Trust Radius=3.00D-01 FncErr=1.00D-07 GrdErr=1.00D-07 EigMax=2.50D+02 EigMin=1.00D-04
 Number of steps in this run=     49 maximum allowed number of steps=    100.
 GradGradGradGradGradGradGradGradGradGradGradGradGradGradGradGradGradGrad

 Leave Link  103 at Tue Oct  8 13:19:15 2024, MaxMem=  2684354560 cpu:               0.1 elap:               0.0
 (Enter /gpfs/fs1/soft/bebop/software/custom-built/gaussian/16-c.02/g16/l202.exe)
 ---------------------------------------------------------------------------------------------------
                            Z-MATRIX (ANGSTROMS AND DEGREES)
   CD    Cent   Atom    N1       Length/X        N2       Alpha/Y        N3        Beta/Z          J
 ---------------------------------------------------------------------------------------------------
      1      1  C 
      2      2  C        1   1.497900(     1)
      3      3  C        1   1.505700(     2)      2  123.487(    15)
      4      4  H        1   1.083600(     3)      2  114.905(    16)      3  205.042(    28)      0
      5      5  O        3   1.433500(     4)      1   58.134(    17)      2  104.789(    29)      0
      6      6  C        3   1.498600(     5)      1  123.835(    18)      5  256.380(    30)      0
      7      7  H        3   1.083000(     6)      1  116.687(    19)      5  101.300(    31)      0
      8      8  H        2   1.088700(     7)      1  109.837(    20)      3   96.195(    32)      0
      9      9  H        2   1.089700(     8)      1  109.301(    21)      8  118.666(    33)      0
     10     10  H        2   1.085200(     9)      1  112.109(    22)      8  238.503(    34)      0
     11     11  H        6   1.085300(    10)      3  112.088(    23)      1   22.512(    35)      0
     12     12  H        6   1.088100(    11)      3  110.025(    24)     11  238.429(    36)      0
     13     13  H        6   1.089600(    12)      3  109.136(    25)     11  119.670(    37)      0
     14         X        7   1.000000(    13)      3   90.000(    26)      1  164.964(    38)      0
     15     14  Cl       7   2.560700(    14)     14  102.294(    27)      3   88.641(    39)      0
 ---------------------------------------------------------------------------------------------------
                         Z-Matrix orientation:                         
 ---------------------------------------------------------------------
 Center     Atomic      Atomic             Coordinates (Angstroms)
 Number     Number       Type             X           Y           Z
 ---------------------------------------------------------------------
      1          6           0        0.000000    0.000000    0.000000
      2          6           0        0.000000    0.000000    1.497900
      3          6           0        1.255775    0.000000   -0.830760
      4          1           0       -0.890444    0.416016   -0.456322
      5          8           0        0.453135   -1.177118   -0.672379
      6          6           0        2.638361   -0.025379   -0.253169
      7          1           0        1.181945    0.425526   -1.823920
      8          1           0       -0.110522    1.018120    1.867338
      9          1           0       -0.843886   -0.587858    1.858074
     10          1           0        0.908954   -0.429692    1.906344
     11          1           0        2.652281   -0.427792    0.754673
     12          1           0        3.055553    0.979491   -0.240903
     13          1           0        3.274380   -0.653249   -0.876456
     14         -1           0        2.179479    0.467786   -1.879968
     15         17           0        0.600239    2.676846   -0.751372
 ---------------------------------------------------------------------
                    Distance matrix (angstroms):
                    1          2          3          4          5
     1  C    0.000000
     2  C    1.497900   0.000000
     3  C    1.505700   2.645681   0.000000
     4  H    1.083600   2.187451   2.218001   0.000000
     5  O    1.429347   2.510189   1.433500   2.095223   0.000000
     6  C    2.650602   3.166676   1.498600   3.562102   2.505485
     7  H    2.214667   3.551416   1.083000   2.482984   2.103729
     8  H    2.129727   1.088700   3.191092   2.523926   3.403960
     9  H    2.123714   1.089700   3.461789   2.523165   2.903909
    10  H    2.155221   1.085200   2.792249   3.087919   2.723276
    11  H    2.790544   2.787470   2.155652   3.837893   2.726576
    12  H    3.217739   3.649554   2.132261   3.991842   3.407303
    13  H    3.452025   4.097056   2.122167   4.320370   2.876719
    14  X    2.916030   4.047090   1.474072   3.384357   2.672871
    15  Cl   2.844355   3.547537   2.757088   2.724068   3.857580
                    6          7          8          9         10
     6  C    0.000000
     7  H    2.189000   0.000000
     8  H    3.625162   3.955632   0.000000
     9  H    4.110934   4.322964   1.765524   0.000000
    10  H    2.796035   3.836767   1.771161   1.760624   0.000000
    11  H    1.085300   3.088557   3.310856   3.669646   2.089387
    12  H    1.088100   2.514602   3.803973   4.697650   3.347290
    13  H    1.089600   2.537662   4.666845   4.943890   3.659124
    14  X    1.760755   1.000000   4.425977   4.922202   4.093391
    15  Cl   3.421136   2.560700   3.180283   4.421878   4.099919
                   11         12         13         14         15
    11  H    0.000000
    12  H    1.770380   0.000000
    13  H    1.760233   1.765687   0.000000
    14  X    2.822576   1.927662   1.860797   0.000000
    15  Cl   4.014702   3.028228   4.272729   2.940693   0.000000
 Stoichiometry    C4H8ClO(2)
 Framework group  C1[X(C4H8ClO)]
 Deg. of freedom    36
 Full point group                 C1      NOp   1
 Largest Abelian subgroup         C1      NOp   1
 Largest concise Abelian subgroup C1      NOp   1
                         Standard orientation:                         
 ---------------------------------------------------------------------
 Center     Atomic      Atomic             Coordinates (Angstroms)
 Number     Number       Type             X           Y           Z
 ---------------------------------------------------------------------
      1          6           0        0.633018   -0.742659   -0.417817
      2          6           0        1.016745   -1.543065    0.788752
      3          6           0        0.489507    0.756162   -0.409249
      4          1           0        0.065495   -1.285855   -1.164171
      5          8           0        1.621761    0.107696   -1.002894
      6          6           0        0.738273    1.611335    0.795988
      7          1           0       -0.179648    1.184924   -1.144969
      8          1           0        0.122747   -1.928820    1.275813
      9          1           0        1.629750   -2.389281    0.479579
     10          1           0        1.586222   -0.957452    1.503184
     11          1           0        1.385578    1.122233    1.516857
     12          1           0       -0.205310    1.860981    1.276913
     13          1           0        1.219634    2.537567    0.483555
     14         17           0       -2.109636   -0.088030   -0.044097
 ---------------------------------------------------------------------
 Rotational constants (GHZ):           3.4999036           1.8130507           1.5261500
 Leave Link  202 at Tue Oct  8 13:19:15 2024, MaxMem=  2684354560 cpu:               0.1 elap:               0.0
 (Enter /gpfs/fs1/soft/bebop/software/custom-built/gaussian/16-c.02/g16/l301.exe)
 Standard basis: CC-pVTZ (5D, 7F)
 Ernie: Thresh=  0.10000D-02 Tol=  0.10000D-05 Strict=F.
 Ernie:  28 primitive shells out of 254 were deleted.
 There are   334 symmetry adapted cartesian basis functions of A   symmetry.
 There are   296 symmetry adapted basis functions of A   symmetry.
   296 basis functions,   490 primitive gaussians,   334 cartesian basis functions
    29 alpha electrons       28 beta electrons
       nuclear repulsion energy       292.9984537284 Hartrees.
 IExCor=  419 DFT=T Ex+Corr=B2PLYPD3 ExCW=0 ScaHFX=  0.530000
 ScaDFX=  0.470000  0.470000  0.730000  0.730000 ScalE2=  0.270000  0.270000
 IRadAn=      5 IRanWt=     -1 IRanGd=            0 ICorTp=0 IEmpDi=141
 NAtoms=   14 NActive=   14 NUniq=   14 SFac= 1.00D+00 NAtFMM=   60 NAOKFM=F Big=F
 Integral buffers will be    131072 words long.
 Regular integral format.
 Two-electron integral symmetry is turned on.
 R6Disp:  Grimme-D3(BJ) Dispersion energy=       -0.0089342552 Hartrees.
 Nuclear repulsion after empirical dispersion term =      292.9895194732 Hartrees.
 Leave Link  301 at Tue Oct  8 13:19:15 2024, MaxMem=  2684354560 cpu:               0.3 elap:               0.1
 (Enter /gpfs/fs1/soft/bebop/software/custom-built/gaussian/16-c.02/g16/l302.exe)
 NPDir=0 NMtPBC=     1 NCelOv=     1 NCel=       1 NClECP=     1 NCelD=      1
         NCelK=      1 NCelE2=     1 NClLst=     1 CellRange=     0.0.
 One-electron integrals computed using PRISM.
 One-electron integral symmetry used in STVInt
 NBasis=   296 RedAO= T EigKep=  2.62D-04  NBF=   296
 NBsUse=   296 1.00D-06 EigRej= -1.00D+00 NBFU=   296
 Precomputing XC quadrature grid using
 IXCGrd= 4 IRadAn=           5 IRanWt=          -1 IRanGd=           0 AccXCQ= 0.00D+00.
 Generated NRdTot=       0 NPtTot=           0 NUsed=           0 NTot=          32
 NSgBfM=   334   334   334   334   334 MxSgAt=    14 MxSgA2=    14.
 Leave Link  302 at Tue Oct  8 13:19:15 2024, MaxMem=  2684354560 cpu:               1.2 elap:               0.2
 (Enter /gpfs/fs1/soft/bebop/software/custom-built/gaussian/16-c.02/g16/l303.exe)
 DipDrv:  MaxL=1.
 Leave Link  303 at Tue Oct  8 13:19:15 2024, MaxMem=  2684354560 cpu:               0.2 elap:               0.1
 (Enter /gpfs/fs1/soft/bebop/software/custom-built/gaussian/16-c.02/g16/l401.exe)
 ExpMin= 1.03D-01 ExpMax= 4.56D+05 ExpMxC= 1.44D+03 IAcc=3 IRadAn=         5 AccDes= 0.00D+00
 Harris functional with IExCor=  419 and IRadAn=       5 diagonalized for initial guess.
 HarFok:  IExCor=  419 AccDes= 0.00D+00 IRadAn=         5 IDoV= 1 UseB2=F ITyADJ=14
 ICtDFT=  3500011 ScaDFX=  1.000000  1.000000  1.000000  1.000000
 FoFCou: FMM=F IPFlag=           0 FMFlag=      100000 FMFlg1=           0
         NFxFlg=           0 DoJE=T BraDBF=F KetDBF=T FulRan=T
         wScrn=  0.000000 ICntrl=       500 IOpCl=  0 I1Cent=   200000004 NGrid=           0
         NMat0=    1 NMatS0=      1 NMatT0=    0 NMatD0=    1 NMtDS0=    0 NMtDT0=    0
 Petite list used in FoFCou.
 Harris En= -692.663293646312    
 JPrj=0 DoOrth=F DoCkMO=F.
 Initial guess <Sx>= 0.0000 <Sy>= 0.0000 <Sz>= 0.5000 <S**2>= 0.7500 S= 0.5000
 Leave Link  401 at Tue Oct  8 13:19:16 2024, MaxMem=  2684354560 cpu:               5.7 elap:               1.0
 (Enter /gpfs/fs1/soft/bebop/software/custom-built/gaussian/16-c.02/g16/l502.exe)
 Keep R1 and R2 ints in memory in canonical form, NReq=1950973320.
 FoFCou: FMM=F IPFlag=           0 FMFlag=           0 FMFlg1=           0
         NFxFlg=           0 DoJE=F BraDBF=F KetDBF=F FulRan=T
         wScrn=  0.000000 ICntrl=       600 IOpCl=  0 I1Cent=           0 NGrid=           0
         NMat0=    1 NMatS0=  43956 NMatT0=    0 NMatD0=    1 NMtDS0=    0 NMtDT0=    0
 Symmetry not used in FoFCou.
 Two-electron integral symmetry not used.
 UHF open shell SCF:
 Using DIIS extrapolation, IDIIS=  1040.
 NGot=  2684354560 LenX=   751952220 LenY=   751840223
 Requested convergence on RMS density matrix=1.00D-08 within  32 cycles.
 Requested convergence on MAX density matrix=1.00D-06.
 Requested convergence on             energy=1.00D-06.
 No special actions if energy rises.
 Integral accuracy reduced to 1.0D-05 until final iterations.

 Cycle   1  Pass 0  IDiag  1:
 E= -691.776321761374    
 DIIS: error= 3.41D-02 at cycle   1 NSaved=   1.
 NSaved= 1 IEnMin= 1 EnMin= -691.776321761374     IErMin= 1 ErrMin= 3.41D-02
 ErrMax= 3.41D-02  0.00D+00 EMaxC= 1.00D-01 BMatC= 1.18D+00 BMatP= 1.18D+00
 IDIUse=3 WtCom= 6.59D-01 WtEn= 3.41D-01
 Coeff-Com:  0.100D+01
 Coeff-En:   0.100D+01
 Coeff:      0.100D+01
 Gap=     0.697 Goal=   None    Shift=    0.000
 Gap=     0.247 Goal=   None    Shift=    0.000
 GapD=    0.247 DampG=1.000 DampE=0.500 DampFc=0.5000 IDamp=-1.
 Damping current iteration by 5.00D-01
 RMSDP=1.83D-03 MaxDP=6.35D-02              OVMax= 3.52D-01

 Cycle   2  Pass 0  IDiag  1:
 E= -691.883156542021     Delta-E=       -0.106834780647 Rises=F Damp=T
 DIIS: error= 8.78D-03 at cycle   2 NSaved=   2.
 NSaved= 2 IEnMin= 2 EnMin= -691.883156542021     IErMin= 2 ErrMin= 8.78D-03
 ErrMax= 8.78D-03  0.00D+00 EMaxC= 1.00D-01 BMatC= 1.21D-01 BMatP= 1.18D+00
 IDIUse=3 WtCom= 9.12D-01 WtEn= 8.78D-02
 Coeff-Com: -0.178D+00 0.118D+01
 Coeff-En:   0.000D+00 0.100D+01
 Coeff:     -0.163D+00 0.116D+01
 Gap=     0.483 Goal=   None    Shift=    0.000
 Gap=     0.233 Goal=   None    Shift=    0.000
 RMSDP=5.37D-04 MaxDP=2.24D-02 DE=-1.07D-01 OVMax= 2.56D-01

 Cycle   3  Pass 0  IDiag  1:
 E= -691.983600158279     Delta-E=       -0.100443616258 Rises=F Damp=F
 DIIS: error= 4.78D-03 at cycle   3 NSaved=   3.
 NSaved= 3 IEnMin= 3 EnMin= -691.983600158279     IErMin= 3 ErrMin= 4.78D-03
 ErrMax= 4.78D-03  0.00D+00 EMaxC= 1.00D-01 BMatC= 4.20D-02 BMatP= 1.21D-01
 IDIUse=3 WtCom= 9.52D-01 WtEn= 4.78D-02
 Coeff-Com: -0.149D+00 0.451D+00 0.699D+00
 Coeff-En:   0.000D+00 0.000D+00 0.100D+01
 Coeff:     -0.142D+00 0.429D+00 0.713D+00
 Gap=     0.466 Goal=   None    Shift=    0.000
 Gap=     0.228 Goal=   None    Shift=    0.000
 RMSDP=2.98D-04 MaxDP=1.21D-02 DE=-1.00D-01 OVMax= 4.90D-02

 Cycle   4  Pass 0  IDiag  1:
 E= -691.990965334340     Delta-E=       -0.007365176061 Rises=F Damp=F
 DIIS: error= 2.04D-03 at cycle   4 NSaved=   4.
 NSaved= 4 IEnMin= 4 EnMin= -691.990965334340     IErMin= 4 ErrMin= 2.04D-03
 ErrMax= 2.04D-03  0.00D+00 EMaxC= 1.00D-01 BMatC= 8.44D-03 BMatP= 4.20D-02
 IDIUse=3 WtCom= 9.80D-01 WtEn= 2.04D-02
 Coeff-Com: -0.599D-01 0.115D+00 0.355D+00 0.590D+00
 Coeff-En:   0.000D+00 0.000D+00 0.490D-01 0.951D+00
 Coeff:     -0.586D-01 0.112D+00 0.349D+00 0.597D+00
 Gap=     0.434 Goal=   None    Shift=    0.000
 Gap=     0.207 Goal=   None    Shift=    0.000
 RMSDP=9.73D-05 MaxDP=4.04D-03 DE=-7.37D-03 OVMax= 2.25D-02

 Cycle   5  Pass 0  IDiag  1:
 E= -691.992679274690     Delta-E=       -0.001713940351 Rises=F Damp=F
 DIIS: error= 6.17D-04 at cycle   5 NSaved=   5.
 NSaved= 5 IEnMin= 5 EnMin= -691.992679274690     IErMin= 5 ErrMin= 6.17D-04
 ErrMax= 6.17D-04  0.00D+00 EMaxC= 1.00D-01 BMatC= 4.38D-04 BMatP= 8.44D-03
 IDIUse=3 WtCom= 9.94D-01 WtEn= 6.17D-03
 Coeff-Com: -0.130D-01 0.161D-01 0.619D-01 0.214D+00 0.721D+00
 Coeff-En:   0.000D+00 0.000D+00 0.000D+00 0.000D+00 0.100D+01
 Coeff:     -0.129D-01 0.160D-01 0.616D-01 0.213D+00 0.723D+00
 Gap=     0.431 Goal=   None    Shift=    0.000
 Gap=     0.206 Goal=   None    Shift=    0.000
 RMSDP=3.06D-05 MaxDP=1.81D-03 DE=-1.71D-03 OVMax= 1.10D-02

 Cycle   6  Pass 0  IDiag  1:
 E= -691.992811286866     Delta-E=       -0.000132012176 Rises=F Damp=F
 DIIS: error= 3.27D-04 at cycle   6 NSaved=   6.
 NSaved= 6 IEnMin= 6 EnMin= -691.992811286866     IErMin= 6 ErrMin= 3.27D-04
 ErrMax= 3.27D-04  0.00D+00 EMaxC= 1.00D-01 BMatC= 7.67D-05 BMatP= 4.38D-04
 IDIUse=3 WtCom= 9.97D-01 WtEn= 3.27D-03
 Coeff-Com:  0.582D-02-0.129D-01-0.538D-01-0.340D-01 0.221D+00 0.874D+00
 Coeff-En:   0.000D+00 0.000D+00 0.000D+00 0.000D+00 0.000D+00 0.100D+01
 Coeff:      0.580D-02-0.129D-01-0.536D-01-0.339D-01 0.221D+00 0.874D+00
 Gap=     0.430 Goal=   None    Shift=    0.000
 Gap=     0.206 Goal=   None    Shift=    0.000
 RMSDP=2.32D-05 MaxDP=1.46D-03 DE=-1.32D-04 OVMax= 8.27D-03

 Cycle   7  Pass 0  IDiag  1:
 E= -691.992860195783     Delta-E=       -0.000048908917 Rises=F Damp=F
 DIIS: error= 1.27D-04 at cycle   7 NSaved=   7.
 NSaved= 7 IEnMin= 7 EnMin= -691.992860195783     IErMin= 7 ErrMin= 1.27D-04
 ErrMax= 1.27D-04  0.00D+00 EMaxC= 1.00D-01 BMatC= 1.25D-05 BMatP= 7.67D-05
 IDIUse=3 WtCom= 9.99D-01 WtEn= 1.27D-03
 Coeff-Com:  0.210D-02-0.242D-02-0.245D-01-0.390D-01-0.829D-01 0.950D-01
 Coeff-Com:  0.105D+01
 Coeff-En:   0.000D+00 0.000D+00 0.000D+00 0.000D+00 0.000D+00 0.000D+00
 Coeff-En:   0.100D+01
 Coeff:      0.210D-02-0.242D-02-0.245D-01-0.389D-01-0.828D-01 0.949D-01
 Coeff:      0.105D+01
 Gap=     0.430 Goal=   None    Shift=    0.000
 Gap=     0.206 Goal=   None    Shift=    0.000
 RMSDP=1.53D-05 MaxDP=9.64D-04 DE=-4.89D-05 OVMax= 6.26D-03

 Cycle   8  Pass 0  IDiag  1:
 E= -691.992875393762     Delta-E=       -0.000015197978 Rises=F Damp=F
 DIIS: error= 6.73D-05 at cycle   8 NSaved=   8.
 NSaved= 8 IEnMin= 8 EnMin= -691.992875393762     IErMin= 8 ErrMin= 6.73D-05
 ErrMax= 6.73D-05  0.00D+00 EMaxC= 1.00D-01 BMatC= 3.15D-06 BMatP= 1.25D-05
 IDIUse=1 WtCom= 1.00D+00 WtEn= 0.00D+00
 Coeff-Com: -0.205D-02 0.446D-02 0.104D-01 0.142D-01-0.172D-01-0.231D+00
 Coeff-Com:  0.597D-02 0.121D+01
 Coeff:     -0.205D-02 0.446D-02 0.104D-01 0.142D-01-0.172D-01-0.231D+00
 Coeff:      0.597D-02 0.121D+01
 Gap=     0.429 Goal=   None    Shift=    0.000
 Gap=     0.205 Goal=   None    Shift=    0.000
 RMSDP=8.82D-06 MaxDP=5.65D-04 DE=-1.52D-05 OVMax= 3.32D-03

 Initial convergence to 1.0D-05 achieved.  Increase integral accuracy.
 Cycle   9  Pass 1  IDiag  1:
 E= -691.992893921577     Delta-E=       -0.000018527815 Rises=F Damp=F
 DIIS: error= 3.76D-05 at cycle   1 NSaved=   1.
 NSaved= 1 IEnMin= 1 EnMin= -691.992893921577     IErMin= 1 ErrMin= 3.76D-05
 ErrMax= 3.76D-05  0.00D+00 EMaxC= 1.00D-01 BMatC= 5.05D-07 BMatP= 5.05D-07
 IDIUse=1 WtCom= 1.00D+00 WtEn= 0.00D+00
 Coeff-Com:  0.100D+01
 Coeff:      0.100D+01
 Gap=     0.429 Goal=   None    Shift=    0.000
 Gap=     0.205 Goal=   None    Shift=    0.000
 RMSDP=8.82D-06 MaxDP=5.65D-04 DE=-1.85D-05 OVMax= 8.60D-04

 Cycle  10  Pass 1  IDiag  1:
 E= -691.992894621694     Delta-E=       -0.000000700118 Rises=F Damp=F
 DIIS: error= 3.60D-05 at cycle   2 NSaved=   2.
 NSaved= 2 IEnMin= 2 EnMin= -691.992894621694     IErMin= 2 ErrMin= 3.60D-05
 ErrMax= 3.60D-05  0.00D+00 EMaxC= 1.00D-01 BMatC= 2.57D-07 BMatP= 5.05D-07
 IDIUse=1 WtCom= 1.00D+00 WtEn= 0.00D+00
 Coeff-Com:  0.713D-01 0.929D+00
 Coeff:      0.713D-01 0.929D+00
 Gap=     0.429 Goal=   None    Shift=    0.000
 Gap=     0.205 Goal=   None    Shift=    0.000
 RMSDP=1.91D-06 MaxDP=1.86D-04 DE=-7.00D-07 OVMax= 7.27D-04

 Cycle  11  Pass 1  IDiag  1:
 E= -691.992895072660     Delta-E=       -0.000000450965 Rises=F Damp=F
 DIIS: error= 3.32D-05 at cycle   3 NSaved=   3.
 NSaved= 3 IEnMin= 3 EnMin= -691.992895072660     IErMin= 3 ErrMin= 3.32D-05
 ErrMax= 3.32D-05  0.00D+00 EMaxC= 1.00D-01 BMatC= 2.28D-07 BMatP= 2.57D-07
 IDIUse=1 WtCom= 1.00D+00 WtEn= 0.00D+00
 Coeff-Com: -0.546D+00 0.495D+00 0.105D+01
 Coeff:     -0.546D+00 0.495D+00 0.105D+01
 Gap=     0.429 Goal=   None    Shift=    0.000
 Gap=     0.205 Goal=   None    Shift=    0.000
 RMSDP=2.98D-06 MaxDP=3.09D-04 DE=-4.51D-07 OVMax= 1.20D-03

 Cycle  12  Pass 1  IDiag  1:
 E= -691.992895686206     Delta-E=       -0.000000613546 Rises=F Damp=F
 DIIS: error= 2.95D-05 at cycle   4 NSaved=   4.
 NSaved= 4 IEnMin= 4 EnMin= -691.992895686206     IErMin= 4 ErrMin= 2.95D-05
 ErrMax= 2.95D-05  0.00D+00 EMaxC= 1.00D-01 BMatC= 1.21D-07 BMatP= 2.28D-07
 IDIUse=1 WtCom= 1.00D+00 WtEn= 0.00D+00
 Coeff-Com: -0.299D+00-0.119D+00 0.407D+00 0.101D+01
 Coeff:     -0.299D+00-0.119D+00 0.407D+00 0.101D+01
 Gap=     0.429 Goal=   None    Shift=    0.000
 Gap=     0.205 Goal=   None    Shift=    0.000
 RMSDP=2.81D-06 MaxDP=3.10D-04 DE=-6.14D-07 OVMax= 1.18D-03

 Cycle  13  Pass 1  IDiag  1:
 E= -691.992896171970     Delta-E=       -0.000000485764 Rises=F Damp=F
 DIIS: error= 2.58D-05 at cycle   5 NSaved=   5.
 NSaved= 5 IEnMin= 5 EnMin= -691.992896171970     IErMin= 5 ErrMin= 2.58D-05
 ErrMax= 2.58D-05  0.00D+00 EMaxC= 1.00D-01 BMatC= 8.74D-08 BMatP= 1.21D-07
 IDIUse=1 WtCom= 1.00D+00 WtEn= 0.00D+00
 Coeff-Com:  0.380D+00-0.363D+00-0.639D+00-0.104D-01 0.163D+01
 Coeff:      0.380D+00-0.363D+00-0.639D+00-0.104D-01 0.163D+01
 Gap=     0.429 Goal=   None    Shift=    0.000
 Gap=     0.205 Goal=   None    Shift=    0.000
 RMSDP=3.82D-06 MaxDP=4.41D-04 DE=-4.86D-07 OVMax= 1.65D-03

 Cycle  14  Pass 1  IDiag  1:
 E= -691.992896732997     Delta-E=       -0.000000561027 Rises=F Damp=F
 DIIS: error= 2.06D-05 at cycle   6 NSaved=   6.
 NSaved= 6 IEnMin= 6 EnMin= -691.992896732997     IErMin= 6 ErrMin= 2.06D-05
 ErrMax= 2.06D-05  0.00D+00 EMaxC= 1.00D-01 BMatC= 5.86D-08 BMatP= 8.74D-08
 IDIUse=1 WtCom= 1.00D+00 WtEn= 0.00D+00
 Coeff-Com:  0.542D+00-0.159D+00-0.622D+00-0.124D+01 0.380D+00 0.210D+01
 Coeff:      0.542D+00-0.159D+00-0.622D+00-0.124D+01 0.380D+00 0.210D+01
 Gap=     0.429 Goal=   None    Shift=    0.000
 Gap=     0.205 Goal=   None    Shift=    0.000
 RMSDP=7.75D-06 MaxDP=9.05D-04 DE=-5.61D-07 OVMax= 3.35D-03

 Cycle  15  Pass 1  IDiag  1:
 E= -691.992897489623     Delta-E=       -0.000000756626 Rises=F Damp=F
 DIIS: error= 9.82D-06 at cycle   7 NSaved=   7.
 NSaved= 7 IEnMin= 7 EnMin= -691.992897489623     IErMin= 7 ErrMin= 9.82D-06
 ErrMax= 9.82D-06  0.00D+00 EMaxC= 1.00D-01 BMatC= 2.10D-08 BMatP= 5.86D-08
 IDIUse=1 WtCom= 1.00D+00 WtEn= 0.00D+00
 Coeff-Com: -0.179D+00 0.154D+00 0.503D+00-0.115D+00-0.139D+01 0.536D+00
 Coeff-Com:  0.149D+01
 Coeff:     -0.179D+00 0.154D+00 0.503D+00-0.115D+00-0.139D+01 0.536D+00
 Coeff:      0.149D+01
 Gap=     0.429 Goal=   None    Shift=    0.000
 Gap=     0.205 Goal=   None    Shift=    0.000
 RMSDP=5.95D-06 MaxDP=6.99D-04 DE=-7.57D-07 OVMax= 2.58D-03

 Cycle  16  Pass 1  IDiag  1:
 E= -691.992897723617     Delta-E=       -0.000000233995 Rises=F Damp=F
 DIIS: error= 1.87D-06 at cycle   8 NSaved=   8.
 NSaved= 8 IEnMin= 8 EnMin= -691.992897723617     IErMin= 8 ErrMin= 1.87D-06
 ErrMax= 1.87D-06  0.00D+00 EMaxC= 1.00D-01 BMatC= 1.85D-09 BMatP= 2.10D-08
 IDIUse=1 WtCom= 1.00D+00 WtEn= 0.00D+00
 Coeff-Com: -0.989D-01 0.935D-02 0.158D+00 0.223D+00-0.181D+00-0.313D+00
 Coeff-Com:  0.951D-01 0.111D+01
 Coeff:     -0.989D-01 0.935D-02 0.158D+00 0.223D+00-0.181D+00-0.313D+00
 Coeff:      0.951D-01 0.111D+01
 Gap=     0.429 Goal=   None    Shift=    0.000
 Gap=     0.205 Goal=   None    Shift=    0.000
 RMSDP=1.17D-06 MaxDP=1.38D-04 DE=-2.34D-07 OVMax= 5.04D-04

 Cycle  17  Pass 1  IDiag  1:
 E= -691.992897733584     Delta-E=       -0.000000009967 Rises=F Damp=F
 DIIS: error= 4.61D-07 at cycle   9 NSaved=   9.
 NSaved= 9 IEnMin= 9 EnMin= -691.992897733584     IErMin= 9 ErrMin= 4.61D-07
 ErrMax= 4.61D-07  0.00D+00 EMaxC= 1.00D-01 BMatC= 3.09D-10 BMatP= 1.85D-09
 IDIUse=1 WtCom= 1.00D+00 WtEn= 0.00D+00
 Coeff-Com:  0.220D-01-0.329D-01-0.593D-01 0.470D-01 0.199D+00-0.110D+00
 Coeff-Com: -0.251D+00 0.114D+00 0.107D+01
 Coeff:      0.220D-01-0.329D-01-0.593D-01 0.470D-01 0.199D+00-0.110D+00
 Coeff:     -0.251D+00 0.114D+00 0.107D+01
 Gap=     0.429 Goal=   None    Shift=    0.000
 Gap=     0.205 Goal=   None    Shift=    0.000
 RMSDP=2.53D-07 MaxDP=2.96D-05 DE=-9.97D-09 OVMax= 1.07D-04

 Cycle  18  Pass 1  IDiag  1:
 E= -691.992897734160     Delta-E=       -0.000000000575 Rises=F Damp=F
 DIIS: error= 2.16D-07 at cycle  10 NSaved=  10.
 NSaved=10 IEnMin=10 EnMin= -691.992897734160     IErMin=10 ErrMin= 2.16D-07
 ErrMax= 2.16D-07  0.00D+00 EMaxC= 1.00D-01 BMatC= 5.11D-11 BMatP= 3.09D-10
 IDIUse=1 WtCom= 1.00D+00 WtEn= 0.00D+00
 Coeff-Com:  0.173D-01-0.883D-02-0.301D-01-0.203D-01 0.579D-01 0.259D-01
 Coeff-Com: -0.656D-01-0.123D+00 0.222D+00 0.925D+00
 Coeff:      0.173D-01-0.883D-02-0.301D-01-0.203D-01 0.579D-01 0.259D-01
 Coeff:     -0.656D-01-0.123D+00 0.222D+00 0.925D+00
 Gap=     0.429 Goal=   None    Shift=    0.000
 Gap=     0.205 Goal=   None    Shift=    0.000
 RMSDP=3.82D-08 MaxDP=4.05D-06 DE=-5.75D-10 OVMax= 1.43D-05

 Cycle  19  Pass 1  IDiag  1:
 E= -691.992897734199     Delta-E=       -0.000000000039 Rises=F Damp=F
 DIIS: error= 7.02D-08 at cycle  11 NSaved=  11.
 NSaved=11 IEnMin=11 EnMin= -691.992897734199     IErMin=11 ErrMin= 7.02D-08
 ErrMax= 7.02D-08  0.00D+00 EMaxC= 1.00D-01 BMatC= 9.52D-12 BMatP= 5.11D-11
 IDIUse=1 WtCom= 1.00D+00 WtEn= 0.00D+00
 Coeff-Com: -0.575D-02 0.809D-02 0.129D-01-0.843D-02-0.427D-01 0.198D-01
 Coeff-Com:  0.555D-01-0.113D-01-0.243D+00-0.854D-01 0.130D+01
 Coeff:     -0.575D-02 0.809D-02 0.129D-01-0.843D-02-0.427D-01 0.198D-01
 Coeff:      0.555D-01-0.113D-01-0.243D+00-0.854D-01 0.130D+01
 Gap=     0.429 Goal=   None    Shift=    0.000
 Gap=     0.205 Goal=   None    Shift=    0.000
 RMSDP=1.17D-08 MaxDP=5.87D-07 DE=-3.87D-11 OVMax= 2.18D-06

 Cycle  20  Pass 1  IDiag  1:
 E= -691.992897734207     Delta-E=       -0.000000000008 Rises=F Damp=F
 DIIS: error= 3.18D-08 at cycle  12 NSaved=  12.
 NSaved=12 IEnMin=12 EnMin= -691.992897734207     IErMin=12 ErrMin= 3.18D-08
 ErrMax= 3.18D-08  0.00D+00 EMaxC= 1.00D-01 BMatC= 1.62D-12 BMatP= 9.52D-12
 IDIUse=1 WtCom= 1.00D+00 WtEn= 0.00D+00
 Coeff-Com: -0.437D-02 0.400D-02 0.738D-02 0.106D-02-0.198D-01 0.547D-03
 Coeff-Com:  0.260D-01 0.144D-01-0.104D+00-0.166D+00 0.374D+00 0.867D+00
 Coeff:     -0.437D-02 0.400D-02 0.738D-02 0.106D-02-0.198D-01 0.547D-03
 Coeff:      0.260D-01 0.144D-01-0.104D+00-0.166D+00 0.374D+00 0.867D+00
 Gap=     0.429 Goal=   None    Shift=    0.000
 Gap=     0.205 Goal=   None    Shift=    0.000
 RMSDP=5.11D-09 MaxDP=4.16D-07 DE=-7.96D-12 OVMax= 1.49D-06

 SCF Done:  E(UB2PLYPD3) =  -691.992897734     A.U. after   20 cycles
            NFock= 20  Conv=0.51D-08     -V/T= 2.0026
 <Sx>= 0.0000 <Sy>= 0.0000 <Sz>= 0.5000 <S**2>= 0.7566 S= 0.5033
 <L.S>=  0.00000000000    
 KE= 6.902046570911D+02 PE=-2.221222935893D+03 EE= 5.460358615943D+02
 Annihilation of the first spin contaminant:
 S**2 before annihilation     0.7566,   after     0.7500
 Leave Link  502 at Tue Oct  8 13:20:44 2024, MaxMem=  2684354560 cpu:             244.6 elap:              88.0
 (Enter /gpfs/fs1/soft/bebop/software/custom-built/gaussian/16-c.02/g16/l508.exe)
 QCSCF skips out because SCF is already converged.
 Leave Link  508 at Tue Oct  8 13:20:44 2024, MaxMem=  2684354560 cpu:               0.0 elap:               0.0
 (Enter /gpfs/fs1/soft/bebop/software/custom-built/gaussian/16-c.02/g16/l801.exe)
 DoSCS=T DFT=T ScalE2(SS,OS)=  0.270000  0.270000
 ExpMin= 1.03D-01 ExpMax= 4.56D+05 ExpMxC= 1.44D+03 IAcc=3 IRadAn=         5 AccDes= 0.00D+00
 HarFok:  IExCor=  205 AccDes= 0.00D+00 IRadAn=         5 IDoV=-2 UseB2=F ITyADJ=14
 ICtDFT= 12500011 ScaDFX=  1.000000  1.000000  1.000000  1.000000
 Largest valence mixing into a core orbital is  1.85D-04
 Largest core mixing into a valence orbital is  7.33D-05
 Largest valence mixing into a core orbital is  1.95D-04
 Largest core mixing into a valence orbital is  6.08D-05
 Range of M.O.s used for correlation:    11   296
 NBasis=   296 NAE=    29 NBE=    28 NFC=    10 NFV=     0
 NROrb=    286 NOA=    19 NOB=    18 NVA=   267 NVB=   268

 **** Warning!!: The largest alpha MO coefficient is  0.12161077D+02


 **** Warning!!: The largest beta MO coefficient is  0.11339641D+02

 Leave Link  801 at Tue Oct  8 13:20:44 2024, MaxMem=  2684354560 cpu:               0.5 elap:               0.1
 (Enter /gpfs/fs1/soft/bebop/software/custom-built/gaussian/16-c.02/g16/l906.exe)
 DoSCS=T DFT=T ScalE2(SS,OS)=  0.270000  0.270000
 Frozen-core derivative calculation, NFC=  10 NFV=   0.
 FulOut=F Deriv=T AODrv=T NAtomX=    14
   MMem=          23  MDisk=          19 MDiskD=          19
  W3Min=     5734112 MinDsk=     4243203 NBas6D=         334
 NBas2D=       56620    NTT=       55945    LW2=     3500000
    MDV=  2682925707 MDiskM=       40133 NBas2p=       55755
 Fully direct method using O(ONN) memory.
 IMap=   1   2   3   4   5   6   7   8   9  10  11  12  13  14  15  16  17  18  19  20
 IMap=  21  22  23  24  25  26  27  28  29
 JobTyp=2 Pass  1:  I=  11 to  29 NPSUse=  6 ParTrn=T ParDer=T DoDerP=T.
 IMap=   1   2   3   4   5   6   7   8   9  10  11  12  13  14  15  16  17  18  19  20
 IMap=  21  22  23  24  25  26  27  28
 JobTyp=3 Pass  1:  I=  11 to  28 NPSUse=  6 ParTrn=T ParDer=T DoDerP=T.
 Spin components of T(2) and E(2):
     alpha-alpha T2 =       0.6661389548D-01 E2=     -0.4500274000D-01
     alpha-beta  T2 =       0.3788932503D+00 E2=     -0.2728970647D+00
     beta-beta   T2 =       0.6625233960D-01 E2=     -0.4231463483D-01
 The integrals were generated   2 times.
 (S**2,0)=  0.75663D+00           (S**2,1)=  0.74567D+00
 Scaling Projection term by:   0.270000
 E(PUHF)=      -0.69199582495D+03        E(PMP2)=      -0.69235325079D+03
 E2(B2PLYPD3) =    -0.3602144396D+00 E(B2PLYPD3) =    -0.69235311217378D+03
 Leave Link  906 at Tue Oct  8 13:23:06 2024, MaxMem=  2684354560 cpu:             847.4 elap:             141.7
 (Enter /gpfs/fs1/soft/bebop/software/custom-built/gaussian/16-c.02/g16/l1002.exe)
 Minotr:  UHF open shell wavefunction.
          Computing MP2/KS-MP2 derivatives.
          Using Z-Vector for PSCF gradient.
          Skipping F1 and S1 gradient terms here.
          IDoAtm=11111111111111
          Frozen-core window.
          Direct CPHF calculation.
          Differentiating once with respect to electric field.
                with respect to dipole field.
          Differentiating once with respect to nuclear coordinates.
          Requested convergence is 1.0D-10 RMS, and 1.0D-09 maximum.
          NewPWx=F KeepS1=T KeepF1=T KeepIn=T MapXYZ=F SortEE=F KeepMc=T.
 Keep R1 and R2 ints in memory in canonical form, NReq=1950975864.
 FoFCou: FMM=F IPFlag=           0 FMFlag=           0 FMFlg1=           0
         NFxFlg=           0 DoJE=F BraDBF=F KetDBF=F FulRan=T
         wScrn=  0.000000 ICntrl=       600 IOpCl=  0 I1Cent=           0 NGrid=           0
         NMat0=    1 NMatS0=  43956 NMatT0=    0 NMatD0=    1 NMtDS0=    0 NMtDT0=    0
 Symmetry not used in FoFCou.
 Two-electron integral symmetry not used.
          MDV=    2684354560 using IRadAn=       5.
          Solving linear equations separately, MaxMat=       0.
          There are     1 degrees of freedom in the 1st order CPHF.  IDoFFX=0 NUNeed=     1.
 LinEq1:  Iter=  0 NonCon=     1 RMS=8.88D-04 Max=8.24D-02 NDo=     1
 AX will form     1 AO Fock derivatives at one time.
 LinEq1:  Iter=  1 NonCon=     1 RMS=3.17D-04 Max=1.02D-02 NDo=     1
 LinEq1:  Iter=  2 NonCon=     1 RMS=2.00D-04 Max=9.35D-03 NDo=     1
 LinEq1:  Iter=  3 NonCon=     1 RMS=9.68D-05 Max=2.85D-03 NDo=     1
 LinEq1:  Iter=  4 NonCon=     1 RMS=3.70D-05 Max=1.58D-03 NDo=     1
 LinEq1:  Iter=  5 NonCon=     1 RMS=1.69D-05 Max=1.20D-03 NDo=     1
 LinEq1:  Iter=  6 NonCon=     1 RMS=8.85D-06 Max=6.48D-04 NDo=     1
 LinEq1:  Iter=  7 NonCon=     1 RMS=4.11D-06 Max=2.31D-04 NDo=     1
 LinEq1:  Iter=  8 NonCon=     1 RMS=2.20D-06 Max=5.13D-05 NDo=     1
 LinEq1:  Iter=  9 NonCon=     1 RMS=8.42D-07 Max=2.30D-05 NDo=     1
 LinEq1:  Iter= 10 NonCon=     1 RMS=2.72D-07 Max=4.90D-06 NDo=     1
 LinEq1:  Iter= 11 NonCon=     1 RMS=1.06D-07 Max=2.52D-06 NDo=     1
 LinEq1:  Iter= 12 NonCon=     1 RMS=3.20D-08 Max=7.70D-07 NDo=     1
 LinEq1:  Iter= 13 NonCon=     1 RMS=1.04D-08 Max=2.28D-07 NDo=     1
 LinEq1:  Iter= 14 NonCon=     1 RMS=4.08D-09 Max=1.85D-07 NDo=     1
 LinEq1:  Iter= 15 NonCon=     1 RMS=2.45D-09 Max=1.79D-07 NDo=     1
 LinEq1:  Iter= 16 NonCon=     1 RMS=1.53D-09 Max=1.03D-07 NDo=     1
 LinEq1:  Iter= 17 NonCon=     1 RMS=5.31D-10 Max=1.73D-08 NDo=     1
 LinEq1:  Iter= 18 NonCon=     1 RMS=1.95D-10 Max=5.71D-09 NDo=     1
 LinEq1:  Iter= 19 NonCon=     1 RMS=6.39D-11 Max=1.83D-09 NDo=     1
 LinEq1:  Iter= 20 NonCon=     0 RMS=2.09D-11 Max=3.89D-10 NDo=     1
 Linear equations converged to 1.000D-10 1.000D-09 after    20 iterations.
 End of Minotr F.D. properties file   721 does not exist.
 End of Minotr F.D. properties file   722 does not exist.
 End of Minotr F.D. properties file   788 does not exist.
 Leave Link 1002 at Tue Oct  8 13:25:02 2024, MaxMem=  2684354560 cpu:             414.8 elap:             115.3
 (Enter /gpfs/fs1/soft/bebop/software/custom-built/gaussian/16-c.02/g16/l601.exe)
 Copying SCF densities to generalized density rwf, IOpCl= 1 IROHF=0.

 **********************************************************************

            Population analysis using the SCF Density.

 **********************************************************************

 Orbital symmetries:
 Alpha Orbitals:
       Occupied  (A) (A) (A) (A) (A) (A) (A) (A) (A) (A) (A) (A)
                 (A) (A) (A) (A) (A) (A) (A) (A) (A) (A) (A) (A)
                 (A) (A) (A) (A) (A)
       Virtual   (A) (A) (A) (A) (A) (A) (A) (A) (A) (A) (A) (A)
                 (A) (A) (A) (A) (A) (A) (A) (A) (A) (A) (A) (A)
                 (A) (A) (A) (A) (A) (A) (A) (A) (A) (A) (A) (A)
                 (A) (A) (A) (A) (A) (A) (A) (A) (A) (A) (A) (A)
                 (A) (A) (A) (A) (A) (A) (A) (A) (A) (A) (A) (A)
                 (A) (A) (A) (A) (A) (A) (A) (A) (A) (A) (A) (A)
                 (A) (A) (A) (A) (A) (A) (A) (A) (A) (A) (A) (A)
                 (A) (A) (A) (A) (A) (A) (A) (A) (A) (A) (A) (A)
                 (A) (A) (A) (A) (A) (A) (A) (A) (A) (A) (A) (A)
                 (A) (A) (A) (A) (A) (A) (A) (A) (A) (A) (A) (A)
                 (A) (A) (A) (A) (A) (A) (A) (A) (A) (A) (A) (A)
                 (A) (A) (A) (A) (A) (A) (A) (A) (A) (A) (A) (A)
                 (A) (A) (A) (A) (A) (A) (A) (A) (A) (A) (A) (A)
                 (A) (A) (A) (A) (A) (A) (A) (A) (A) (A) (A) (A)
                 (A) (A) (A) (A) (A) (A) (A) (A) (A) (A) (A) (A)
                 (A) (A) (A) (A) (A) (A) (A) (A) (A) (A) (A) (A)
                 (A) (A) (A) (A) (A) (A) (A) (A) (A) (A) (A) (A)
                 (A) (A) (A) (A) (A) (A) (A) (A) (A) (A) (A) (A)
                 (A) (A) (A) (A) (A) (A) (A) (A) (A) (A) (A) (A)
                 (A) (A) (A) (A) (A) (A) (A) (A) (A) (A) (A) (A)
                 (A) (A) (A) (A) (A) (A) (A) (A) (A) (A) (A) (A)
                 (A) (A) (A) (A) (A) (A) (A) (A) (A) (A) (A) (A)
                 (A) (A) (A)
 Beta  Orbitals:
       Occupied  (A) (A) (A) (A) (A) (A) (A) (A) (A) (A) (A) (A)
                 (A) (A) (A) (A) (A) (A) (A) (A) (A) (A) (A) (A)
                 (A) (A) (A) (A)
       Virtual   (A) (A) (A) (A) (A) (A) (A) (A) (A) (A) (A) (A)
                 (A) (A) (A) (A) (A) (A) (A) (A) (A) (A) (A) (A)
                 (A) (A) (A) (A) (A) (A) (A) (A) (A) (A) (A) (A)
                 (A) (A) (A) (A) (A) (A) (A) (A) (A) (A) (A) (A)
                 (A) (A) (A) (A) (A) (A) (A) (A) (A) (A) (A) (A)
                 (A) (A) (A) (A) (A) (A) (A) (A) (A) (A) (A) (A)
                 (A) (A) (A) (A) (A) (A) (A) (A) (A) (A) (A) (A)
                 (A) (A) (A) (A) (A) (A) (A) (A) (A) (A) (A) (A)
                 (A) (A) (A) (A) (A) (A) (A) (A) (A) (A) (A) (A)
                 (A) (A) (A) (A) (A) (A) (A) (A) (A) (A) (A) (A)
                 (A) (A) (A) (A) (A) (A) (A) (A) (A) (A) (A) (A)
                 (A) (A) (A) (A) (A) (A) (A) (A) (A) (A) (A) (A)
                 (A) (A) (A) (A) (A) (A) (A) (A) (A) (A) (A) (A)
                 (A) (A) (A) (A) (A) (A) (A) (A) (A) (A) (A) (A)
                 (A) (A) (A) (A) (A) (A) (A) (A) (A) (A) (A) (A)
                 (A) (A) (A) (A) (A) (A) (A) (A) (A) (A) (A) (A)
                 (A) (A) (A) (A) (A) (A) (A) (A) (A) (A) (A) (A)
                 (A) (A) (A) (A) (A) (A) (A) (A) (A) (A) (A) (A)
                 (A) (A) (A) (A) (A) (A) (A) (A) (A) (A) (A) (A)
                 (A) (A) (A) (A) (A) (A) (A) (A) (A) (A) (A) (A)
                 (A) (A) (A) (A) (A) (A) (A) (A) (A) (A) (A) (A)
                 (A) (A) (A) (A) (A) (A) (A) (A) (A) (A) (A) (A)
                 (A) (A) (A) (A)
 The electronic state is 2-A.
 Alpha  occ. eigenvalues -- -102.95726 -19.74725 -10.68824 -10.68751 -10.61732
 Alpha  occ. eigenvalues --  -10.61662  -9.94397  -7.59680  -7.57530  -7.57529
 Alpha  occ. eigenvalues --   -1.22545  -0.95124  -0.87404  -0.86345  -0.74214
 Alpha  occ. eigenvalues --   -0.67466  -0.60610  -0.53620  -0.51960  -0.50781
 Alpha  occ. eigenvalues --   -0.47741  -0.47048  -0.45277  -0.44056  -0.42746
 Alpha  occ. eigenvalues --   -0.40010  -0.39638  -0.35462  -0.34850
 Alpha virt. eigenvalues --    0.08069   0.10160   0.11042   0.13308   0.14726
 Alpha virt. eigenvalues --    0.15037   0.15046   0.18365   0.19537   0.21281
 Alpha virt. eigenvalues --    0.21514   0.25053   0.26845   0.29101   0.31115
 Alpha virt. eigenvalues --    0.34181   0.35027   0.36033   0.39526   0.40047
 Alpha virt. eigenvalues --    0.41305   0.42056   0.42661   0.42831   0.45284
 Alpha virt. eigenvalues --    0.47834   0.48511   0.49932   0.50571   0.50846
 Alpha virt. eigenvalues --    0.51778   0.52537   0.53892   0.54113   0.54934
 Alpha virt. eigenvalues --    0.55847   0.57046   0.57362   0.58816   0.59013
 Alpha virt. eigenvalues --    0.62257   0.62758   0.63655   0.68187   0.70044
 Alpha virt. eigenvalues --    0.78637   0.80380   0.81132   0.85041   0.85533
 Alpha virt. eigenvalues --    0.89203   0.91404   0.92262   0.94237   0.97060
 Alpha virt. eigenvalues --    1.00883   1.01437   1.03347   1.04849   1.05311
 Alpha virt. eigenvalues --    1.08468   1.09558   1.11204   1.13360   1.15501
 Alpha virt. eigenvalues --    1.18918   1.19058   1.20851   1.22575   1.24720
 Alpha virt. eigenvalues --    1.25453   1.30890   1.33131   1.33803   1.34821
 Alpha virt. eigenvalues --    1.35430   1.37022   1.40823   1.41590   1.41698
 Alpha virt. eigenvalues --    1.44293   1.46544   1.49749   1.50277   1.51002
 Alpha virt. eigenvalues --    1.52843   1.57176   1.61849   1.63254   1.64210
 Alpha virt. eigenvalues --    1.70137   1.81355   1.84099   1.88391   1.95006
 Alpha virt. eigenvalues --    2.02856   2.04431   2.04896   2.05313   2.08753
 Alpha virt. eigenvalues --    2.09380   2.10883   2.14331   2.18577   2.19981
 Alpha virt. eigenvalues --    2.20228   2.21211   2.21696   2.21947   2.24288
 Alpha virt. eigenvalues --    2.26557   2.29255   2.35833   2.37076   2.38842
 Alpha virt. eigenvalues --    2.39194   2.41334   2.42895   2.44278   2.47618
 Alpha virt. eigenvalues --    2.53594   2.57111   2.58309   2.66635   2.67016
 Alpha virt. eigenvalues --    2.71198   2.73839   2.74905   2.77289   2.78743
 Alpha virt. eigenvalues --    2.82987   2.87101   2.87770   2.88807   2.89986
 Alpha virt. eigenvalues --    2.90286   2.94102   2.94768   2.97606   2.97868
 Alpha virt. eigenvalues --    3.02915   3.03841   3.06253   3.06718   3.08466
 Alpha virt. eigenvalues --    3.13244   3.13690   3.18566   3.19541   3.21381
 Alpha virt. eigenvalues --    3.22001   3.23826   3.24952   3.25331   3.28159
 Alpha virt. eigenvalues --    3.32106   3.34324   3.37908   3.38449   3.40820
 Alpha virt. eigenvalues --    3.44168   3.44631   3.45631   3.48799   3.51823
 Alpha virt. eigenvalues --    3.52911   3.54157   3.55539   3.57711   3.61121
 Alpha virt. eigenvalues --    3.62137   3.63297   3.64665   3.70256   3.73091
 Alpha virt. eigenvalues --    3.78166   3.78288   3.79433   3.82134   3.89176
 Alpha virt. eigenvalues --    3.89902   3.91249   3.95069   3.96056   3.96985
 Alpha virt. eigenvalues --    3.99786   4.00073   4.02785   4.06280   4.06495
 Alpha virt. eigenvalues --    4.10760   4.12165   4.15457   4.16709   4.16903
 Alpha virt. eigenvalues --    4.18508   4.21979   4.23627   4.24253   4.25639
 Alpha virt. eigenvalues --    4.28971   4.29948   4.36048   4.38233   4.41034
 Alpha virt. eigenvalues --    4.42077   4.44061   4.46835   4.48238   4.50917
 Alpha virt. eigenvalues --    4.53223   4.56537   4.65471   4.67627   4.67952
 Alpha virt. eigenvalues --    4.80738   4.83823   4.89008   4.94140   4.94774
 Alpha virt. eigenvalues --    4.97024   4.98753   5.05019   5.05950   5.07800
 Alpha virt. eigenvalues --    5.08081   5.14657   5.19650   5.23030   5.24097
 Alpha virt. eigenvalues --    5.29013   5.29767   5.31673   5.32381   5.40195
 Alpha virt. eigenvalues --    5.42237   5.45882   5.51287   5.51753   5.52248
 Alpha virt. eigenvalues --    5.54094   5.59024   5.61082   5.62200   5.71890
 Alpha virt. eigenvalues --    5.78621   5.79870   5.90907   5.94641   5.96309
 Alpha virt. eigenvalues --    6.00225   6.08475   6.11858   6.12003   6.22365
 Alpha virt. eigenvalues --    6.26647   6.69405   6.88617   7.04128   7.10402
 Alpha virt. eigenvalues --    7.19721   7.49556  11.06083  11.50576  12.62807
 Alpha virt. eigenvalues --   13.51487  14.33073
  Beta  occ. eigenvalues -- -102.94914 -19.74510 -10.68699 -10.68634 -10.61731
  Beta  occ. eigenvalues --  -10.61661  -9.93604  -7.57094  -7.57093  -7.56566
  Beta  occ. eigenvalues --   -1.21940  -0.88713  -0.86431  -0.86218  -0.73222
  Beta  occ. eigenvalues --   -0.67371  -0.60304  -0.53163  -0.51783  -0.49958
  Beta  occ. eigenvalues --   -0.47528  -0.47012  -0.43974  -0.42587  -0.38443
  Beta  occ. eigenvalues --   -0.38108  -0.35612  -0.34570
  Beta virt. eigenvalues --   -0.14041   0.08141   0.10232   0.11073   0.13539
  Beta virt. eigenvalues --    0.14801   0.15073   0.15106   0.18598   0.20027
  Beta virt. eigenvalues --    0.21297   0.21625   0.25089   0.26956   0.29407
  Beta virt. eigenvalues --    0.31120   0.34317   0.36080   0.37535   0.40475
  Beta virt. eigenvalues --    0.40947   0.42483   0.42784   0.42914   0.44529
  Beta virt. eigenvalues --    0.47292   0.48220   0.49667   0.50322   0.50710
  Beta virt. eigenvalues --    0.51513   0.52011   0.53206   0.53994   0.55278
  Beta virt. eigenvalues --    0.55967   0.56333   0.57418   0.57997   0.59288
  Beta virt. eigenvalues --    0.60979   0.62382   0.63498   0.64211   0.68554
  Beta virt. eigenvalues --    0.71251   0.78745   0.80675   0.81505   0.85552
  Beta virt. eigenvalues --    0.85660   0.89433   0.91602   0.92390   0.94697
  Beta virt. eigenvalues --    0.97212   1.00992   1.02100   1.03420   1.05010
  Beta virt. eigenvalues --    1.05975   1.08482   1.09644   1.11365   1.13620
  Beta virt. eigenvalues --    1.15685   1.19130   1.19187   1.21018   1.22589
  Beta virt. eigenvalues --    1.24814   1.25818   1.30932   1.33148   1.33920
  Beta virt. eigenvalues --    1.34882   1.35601   1.37181   1.40869   1.41601
  Beta virt. eigenvalues --    1.41811   1.44326   1.46608   1.49835   1.50347
  Beta virt. eigenvalues --    1.51112   1.52873   1.57184   1.61946   1.63309
  Beta virt. eigenvalues --    1.64388   1.70163   1.81369   1.84291   1.88892
  Beta virt. eigenvalues --    1.95124   2.03456   2.05000   2.05381   2.08143
  Beta virt. eigenvalues --    2.10299   2.13228   2.14160   2.16136   2.21050
  Beta virt. eigenvalues --    2.21482   2.21950   2.22598   2.22754   2.24075
  Beta virt. eigenvalues --    2.26039   2.28713   2.31344   2.37678   2.39258
  Beta virt. eigenvalues --    2.39679   2.39887   2.41548   2.43030   2.44627
  Beta virt. eigenvalues --    2.48016   2.53942   2.57388   2.58538   2.66850
  Beta virt. eigenvalues --    2.67142   2.71381   2.74242   2.75229   2.77493
  Beta virt. eigenvalues --    2.78820   2.83157   2.87249   2.87984   2.89012
  Beta virt. eigenvalues --    2.90057   2.90336   2.94160   2.94862   2.97695
  Beta virt. eigenvalues --    2.97922   3.02988   3.03948   3.06368   3.06786
  Beta virt. eigenvalues --    3.08591   3.13318   3.13806   3.18597   3.19633
  Beta virt. eigenvalues --    3.21437   3.22265   3.23899   3.25046   3.25379
  Beta virt. eigenvalues --    3.28341   3.32148   3.34409   3.38072   3.38612
  Beta virt. eigenvalues --    3.40887   3.44204   3.44843   3.45691   3.48861
  Beta virt. eigenvalues --    3.51873   3.52945   3.54187   3.55572   3.57739
  Beta virt. eigenvalues --    3.61207   3.62164   3.63336   3.64691   3.70315
  Beta virt. eigenvalues --    3.73121   3.78210   3.78335   3.79462   3.82215
  Beta virt. eigenvalues --    3.89218   3.89942   3.91269   3.95094   3.96100
  Beta virt. eigenvalues --    3.97052   3.99858   4.00189   4.02821   4.06312
  Beta virt. eigenvalues --    4.06530   4.10855   4.12207   4.15511   4.16719
  Beta virt. eigenvalues --    4.16939   4.18553   4.22021   4.23634   4.24278
  Beta virt. eigenvalues --    4.25677   4.28995   4.30013   4.36085   4.38366
  Beta virt. eigenvalues --    4.41063   4.42096   4.44085   4.46889   4.48293
  Beta virt. eigenvalues --    4.51000   4.53269   4.56654   4.65503   4.67719
  Beta virt. eigenvalues --    4.68050   4.80785   4.83916   4.89550   4.94289
  Beta virt. eigenvalues --    4.94836   4.97288   4.98822   5.05039   5.06014
  Beta virt. eigenvalues --    5.07846   5.08112   5.14736   5.19755   5.23092
  Beta virt. eigenvalues --    5.24186   5.29050   5.29804   5.31721   5.32415
  Beta virt. eigenvalues --    5.40404   5.42259   5.45908   5.51314   5.51781
  Beta virt. eigenvalues --    5.52281   5.54103   5.59108   5.61141   5.62214
  Beta virt. eigenvalues --    5.71972   5.78688   5.79979   5.91074   5.94755
  Beta virt. eigenvalues --    5.96401   6.00263   6.08734   6.11952   6.12259
  Beta virt. eigenvalues --    6.22702   6.26773   6.69751   6.88818   7.04285
  Beta virt. eigenvalues --    7.10965   7.20384   7.50030  11.06277  11.50688
  Beta virt. eigenvalues --   12.62935  13.51495  14.33080
          Condensed to atoms (all electrons):
               1          2          3          4          5          6
     1  C    4.812820   0.344095   0.332607   0.433429   0.215841  -0.036480
     2  C    0.344095   4.836896  -0.035992  -0.043767  -0.024602  -0.004021
     3  C    0.332607  -0.035992   4.831345  -0.031975   0.210843   0.345480
     4  H    0.433429  -0.043767  -0.031975   0.523280  -0.022252   0.001659
     5  O    0.215841  -0.024602   0.210843  -0.022252   7.993621  -0.023323
     6  C   -0.036480  -0.004021   0.345480   0.001659  -0.023323   4.832412
     7  H   -0.032759   0.001665   0.432137  -0.000625  -0.020697  -0.041957
     8  H   -0.036664   0.395637  -0.002683   0.001321   0.004995  -0.000739
     9  H   -0.035189   0.411009   0.007915  -0.005998  -0.003841   0.000106
    10  H   -0.035086   0.409099  -0.002513   0.005245   0.003782  -0.004124
    11  H   -0.002844  -0.003856  -0.035431   0.000163   0.003405   0.409804
    12  H   -0.002101  -0.000847  -0.037131   0.000584   0.005046   0.397136
    13  H    0.007937   0.000100  -0.035486  -0.000320  -0.004054   0.410952
    14  Cl  -0.000892  -0.006653  -0.002584  -0.002161  -0.000550  -0.009626
               7          8          9         10         11         12
     1  C   -0.032759  -0.036664  -0.035189  -0.035086  -0.002844  -0.002101
     2  C    0.001665   0.395637   0.411009   0.409099  -0.003856  -0.000847
     3  C    0.432137  -0.002683   0.007915  -0.002513  -0.035431  -0.037131
     4  H   -0.000625   0.001321  -0.005998   0.005245   0.000163   0.000584
     5  O   -0.020697   0.004995  -0.003841   0.003782   0.003405   0.005046
     6  C   -0.041957  -0.000739   0.000106  -0.004124   0.409804   0.397136
     7  H    0.519659   0.000568  -0.000323   0.000179   0.005077   0.001010
     8  H    0.000568   0.581781  -0.030471  -0.024376   0.000942   0.000242
     9  H   -0.000323  -0.030471   0.575416  -0.030258  -0.000266  -0.000119
    10  H    0.000179  -0.024376  -0.030258   0.573875   0.001432   0.000993
    11  H    0.005077   0.000942  -0.000266   0.001432   0.575555  -0.024793
    12  H    0.001010   0.000242  -0.000119   0.000993  -0.024793   0.580033
    13  H   -0.005707  -0.000122   0.000109  -0.000251  -0.030401  -0.030283
    14  Cl  -0.004137   0.003886   0.000386   0.000070   0.000153   0.004114
              13         14
     1  C    0.007937  -0.000892
     2  C    0.000100  -0.006653
     3  C   -0.035486  -0.002584
     4  H   -0.000320  -0.002161
     5  O   -0.004054  -0.000550
     6  C    0.410952  -0.009626
     7  H   -0.005707  -0.004137
     8  H   -0.000122   0.003886
     9  H    0.000109   0.000386
    10  H   -0.000251   0.000070
    11  H   -0.030401   0.000153
    12  H   -0.030283   0.004114
    13  H    0.575190   0.000622
    14  Cl   0.000622  17.107226
          Atomic-Atomic Spin Densities.
               1          2          3          4          5          6
     1  C    0.041602  -0.001307   0.023305   0.002730  -0.010729  -0.001792
     2  C   -0.001307   0.000611  -0.001552  -0.000154   0.000861   0.000418
     3  C    0.023305  -0.001552   0.031655   0.002487  -0.009514  -0.001087
     4  H    0.002730  -0.000154   0.002487  -0.000090  -0.001442  -0.000055
     5  O   -0.010729   0.000861  -0.009514  -0.001442   0.077751   0.001015
     6  C   -0.001792   0.000418  -0.001087  -0.000055   0.001015   0.001089
     7  H    0.003400  -0.000102   0.004902   0.000046  -0.002195  -0.000384
     8  H    0.000271   0.000473   0.000037  -0.000094  -0.000034   0.000008
     9  H    0.000498   0.000079   0.000123   0.000205  -0.000030  -0.000047
    10  H   -0.000013   0.000179  -0.000018  -0.000041  -0.000070   0.000034
    11  H   -0.000032   0.000020   0.000084  -0.000007  -0.000061   0.000131
    12  H    0.000075  -0.000006   0.000313   0.000008  -0.000045   0.000429
    13  H    0.000095  -0.000036   0.000889   0.000013  -0.000084  -0.000114
    14  Cl  -0.030850   0.003854  -0.033952  -0.004576   0.004782   0.004227
               7          8          9         10         11         12
     1  C    0.003400   0.000271   0.000498  -0.000013  -0.000032   0.000075
     2  C   -0.000102   0.000473   0.000079   0.000179   0.000020  -0.000006
     3  C    0.004902   0.000037   0.000123  -0.000018   0.000084   0.000313
     4  H    0.000046  -0.000094   0.000205  -0.000041  -0.000007   0.000008
     5  O   -0.002195  -0.000034  -0.000030  -0.000070  -0.000061  -0.000045
     6  C   -0.000384   0.000008  -0.000047   0.000034   0.000131   0.000429
     7  H    0.002536   0.000010   0.000019  -0.000011  -0.000055  -0.000062
     8  H    0.000010  -0.000559   0.000068  -0.000118  -0.000011  -0.000004
     9  H    0.000019   0.000068   0.000197   0.000106   0.000009   0.000002
    10  H   -0.000011  -0.000118   0.000106  -0.000213  -0.000022  -0.000011
    11  H   -0.000055  -0.000011   0.000009  -0.000022  -0.000410  -0.000138
    12  H   -0.000062  -0.000004   0.000002  -0.000011  -0.000138  -0.000671
    13  H    0.000293   0.000000  -0.000002   0.000008   0.000195   0.000133
    14  Cl  -0.008296  -0.001081  -0.000383   0.000096   0.000113  -0.001450
              13         14
     1  C    0.000095  -0.030850
     2  C   -0.000036   0.003854
     3  C    0.000889  -0.033952
     4  H    0.000013  -0.004576
     5  O   -0.000084   0.004782
     6  C   -0.000114   0.004227
     7  H    0.000293  -0.008296
     8  H    0.000000  -0.001081
     9  H   -0.000002  -0.000383
    10  H    0.000008   0.000096
    11  H    0.000195   0.000113
    12  H    0.000133  -0.001450
    13  H   -0.000913  -0.000458
    14  Cl  -0.000458   0.958384
 Mulliken charges and spin densities:
               1          2
     1  C    0.035285   0.027252
     2  C   -0.278763   0.003339
     3  C    0.023469   0.017671
     4  H    0.141416  -0.000970
     5  O   -0.338213   0.060205
     6  C   -0.277277   0.003873
     7  H    0.145910   0.000101
     8  H    0.105682  -0.001036
     9  H    0.111521   0.000844
    10  H    0.101932  -0.000097
    11  H    0.101060  -0.000186
    12  H    0.106118  -0.001427
    13  H    0.111713   0.000018
    14  Cl  -0.089854   0.890412
 Sum of Mulliken charges =  -0.00000   1.00000
 Mulliken charges and spin densities with hydrogens summed into heavy atoms:
               1          2
     1  C    0.176701   0.026282
     2  C    0.040373   0.003050
     3  C    0.169379   0.017772
     5  O   -0.338213   0.060205
     6  C    0.041615   0.002279
    14  Cl  -0.089854   0.890412
 Electronic spatial extent (au):  <R**2>=            845.7327
 Charge=             -0.0000 electrons
 Dipole moment (field-independent basis, Debye):
    X=             -0.3723    Y=             -0.1125    Z=              1.1192  Tot=              1.1849
 Quadrupole moment (field-independent basis, Debye-Ang):
   XX=            -48.6924   YY=            -41.2151   ZZ=            -45.2142
   XY=             -0.6455   XZ=              2.8934   YZ=              0.2590
 Traceless Quadrupole moment (field-independent basis, Debye-Ang):
   XX=             -3.6518   YY=              3.8255   ZZ=             -0.1737
   XY=             -0.6455   XZ=              2.8934   YZ=              0.2590
 Octapole moment (field-independent basis, Debye-Ang**2):
  XXX=            -13.6500  YYY=              0.4403  ZZZ=             -2.3395  XYY=              3.1002
  XXY=             -1.3938  XXZ=              6.4416  XZZ=             -2.9238  YZZ=             -0.2554
  YYZ=             -2.7112  XYZ=              0.6613
 Hexadecapole moment (field-independent basis, Debye-Ang**3):
 XXXX=           -566.1809 YYYY=           -336.5596 ZZZZ=           -180.8297 XXXY=              0.2382
 XXXZ=              0.0328 YYYX=              1.1643 YYYZ=             -0.6196 ZZZX=              0.3459
 ZZZY=              0.2026 XXYY=           -150.2547 XXZZ=           -131.7572 YYZZ=            -86.1162
 XXYZ=              0.7268 YYXZ=             -4.0484 ZZXY=             -0.1147
 N-N= 2.929895194732D+02 E-N=-2.221222937443D+03  KE= 6.902046570911D+02
                          Isotropic Fermi Contact Couplings
        Atom                 a.u.       MegaHertz       Gauss      10(-4) cm-1
     1  C(13)              0.02064      23.20420       8.27983       7.74009
     2  C(13)             -0.00102      -1.15081      -0.41064      -0.38387
     3  C(13)              0.02771      31.15684      11.11754      10.39280
     4  H(1)              -0.00003      -0.13233      -0.04722      -0.04414
     5  O(17)             -0.01596       9.67189       3.45117       3.22619
     6  C(13)             -0.00137      -1.54355      -0.55078      -0.51487
     7  H(1)               0.00150       6.70906       2.39396       2.23790
     8  H(1)              -0.00024      -1.07124      -0.38224      -0.35733
     9  H(1)               0.00093       4.15379       1.48218       1.38556
    10  H(1)               0.00002       0.07230       0.02580       0.02412
    11  H(1)              -0.00004      -0.18377      -0.06557      -0.06130
    12  H(1)              -0.00030      -1.35112      -0.48211      -0.45068
    13  H(1)               0.00047       2.07862       0.74170       0.69335
    14  Cl(35)             0.16006      70.18009      25.04200      23.40956
 --------------------------------------------------------
       Center         ----  Spin Dipole Couplings  ----
                      3XX-RR        3YY-RR        3ZZ-RR
 --------------------------------------------------------
     1   Atom        0.052622      0.005466     -0.058088
     2   Atom       -0.001505      0.002916     -0.001411
     3   Atom        0.036189      0.023405     -0.059595
     4   Atom       -0.000643      0.003789     -0.003146
     5   Atom        0.396940     -0.195493     -0.201448
     6   Atom       -0.002201      0.003301     -0.001100
     7   Atom       -0.000916      0.003821     -0.002905
     8   Atom        0.000389      0.000790     -0.001180
     9   Atom        0.000768      0.000863     -0.001632
    10   Atom        0.001472     -0.002496      0.001024
    11   Atom        0.001100     -0.002120      0.001020
    12   Atom       -0.000518      0.001727     -0.001209
    13   Atom        0.000187      0.001625     -0.001812
    14   Atom        4.795005     -2.539893     -2.255112
 --------------------------------------------------------
                        XY            XZ            YZ
 --------------------------------------------------------
     1   Atom       -0.078078     -0.013396      0.012331
     2   Atom       -0.004553      0.003258     -0.008020
     3   Atom        0.078235     -0.002889     -0.006067
     4   Atom       -0.003145     -0.003701      0.012692
     5   Atom        0.019069     -0.019988     -0.001343
     6   Atom        0.003095      0.001698      0.008511
     7   Atom        0.001699     -0.002719     -0.014871
     8   Atom       -0.004144      0.002571     -0.004711
     9   Atom       -0.002872      0.000311     -0.001261
    10   Atom       -0.001525      0.003227     -0.001610
    11   Atom        0.001923      0.003038      0.002102
    12   Atom        0.004559      0.002614      0.005559
    13   Atom        0.002865      0.000185      0.001437
    14   Atom        0.376707     -1.503165     -0.077469
 --------------------------------------------------------


 ---------------------------------------------------------------------------------
              Anisotropic Spin Dipole Couplings in Principal Axis System
 ---------------------------------------------------------------------------------

       Atom             a.u.   MegaHertz   Gauss  10(-4) cm-1        Axes

              Baa    -0.0605    -8.114    -2.895    -2.706 -0.0566 -0.2479  0.9671
     1 C(13)  Bbb    -0.0521    -6.986    -2.493    -2.330  0.6005  0.7654  0.2314
              Bcc     0.1125    15.100     5.388     5.037  0.7976 -0.5939 -0.1055
 
              Baa    -0.0076    -1.015    -0.362    -0.338  0.0435  0.6191  0.7841
     2 C(13)  Bbb    -0.0039    -0.525    -0.187    -0.175  0.9172  0.2863 -0.2770
              Bcc     0.0115     1.539     0.549     0.514 -0.3960  0.7313 -0.5554
 
              Baa    -0.0604    -8.100    -2.890    -2.702 -0.1155  0.1787  0.9771
     3 C(13)  Bbb    -0.0482    -6.463    -2.306    -2.156 -0.6688  0.7133 -0.2095
              Bcc     0.1085    14.563     5.196     4.858  0.7344  0.6777 -0.0371
 
              Baa    -0.0129    -6.899    -2.462    -2.301  0.0900 -0.5914  0.8013
     4 H(1)   Bbb    -0.0020    -1.067    -0.381    -0.356  0.9521  0.2871  0.1050
              Bcc     0.0149     7.965     2.842     2.657 -0.2922  0.7535  0.5889
 
              Baa    -0.2022    14.631     5.221     4.880  0.0295  0.1152  0.9929
     5 O(17)  Bbb    -0.1960    14.184     5.061     4.731 -0.0358  0.9928 -0.1141
              Bcc     0.3982   -28.815   -10.282    -9.612  0.9989  0.0322 -0.0334
 
              Baa    -0.0078    -1.040    -0.371    -0.347  0.1128 -0.6258  0.7718
     6 C(13)  Bbb    -0.0031    -0.412    -0.147    -0.138  0.9593 -0.1338 -0.2487
              Bcc     0.0108     1.453     0.518     0.485  0.2589  0.7684  0.5853
 
              Baa    -0.0149    -7.935    -2.831    -2.647  0.0777  0.6164  0.7836
     7 H(1)   Bbb    -0.0014    -0.729    -0.260    -0.243  0.9817 -0.1845  0.0478
              Bcc     0.0162     8.664     3.092     2.890  0.1740  0.7656 -0.6194
 
              Baa    -0.0051    -2.737    -0.977    -0.913  0.1934  0.6902  0.6973
     8 H(1)   Bbb    -0.0027    -1.420    -0.507    -0.474  0.8136  0.2844 -0.5072
              Bcc     0.0078     4.157     1.483     1.387 -0.5484  0.6654 -0.5065
 
              Baa    -0.0026    -1.396    -0.498    -0.466  0.4620  0.6136  0.6404
     9 H(1)   Bbb    -0.0013    -0.694    -0.248    -0.232 -0.5798 -0.3374  0.7416
              Bcc     0.0039     2.090     0.746     0.697 -0.6711  0.7139 -0.1999
 
              Baa    -0.0032    -1.683    -0.600    -0.561  0.1258  0.9544  0.2706
    10 H(1)   Bbb    -0.0020    -1.052    -0.375    -0.351  0.7045  0.1061 -0.7018
              Bcc     0.0051     2.735     0.976     0.912  0.6985 -0.2789  0.6590
 
              Baa    -0.0032    -1.729    -0.617    -0.577 -0.1806  0.9270 -0.3287
    11 H(1)   Bbb    -0.0020    -1.048    -0.374    -0.349  0.7308 -0.0972 -0.6756
              Bcc     0.0052     2.776     0.991     0.926  0.6583  0.3622  0.6599
 
              Baa    -0.0057    -3.025    -1.079    -1.009  0.2423 -0.6739  0.6979
    12 H(1)   Bbb    -0.0032    -1.723    -0.615    -0.575  0.8402 -0.2139 -0.4983
              Bcc     0.0089     4.748     1.694     1.584  0.4851  0.7071  0.5144
 
              Baa    -0.0028    -1.486    -0.530    -0.496  0.4724 -0.5351  0.7004
    13 H(1)   Bbb    -0.0013    -0.715    -0.255    -0.239 -0.6622  0.3090  0.6827
              Bcc     0.0041     2.201     0.785     0.734  0.5817  0.7862  0.2084
 
              Baa    -2.5623  -134.105   -47.852   -44.733  0.1900  0.1565  0.9692
    14 Cl(35) Bbb    -2.5591  -133.938   -47.793   -44.677 -0.0799  0.9864 -0.1436
              Bcc     5.1214   268.043    95.645    89.410  0.9785  0.0501 -0.1999
 

 ---------------------------------------------------------------------------------

 No NMR shielding tensors so no spin-rotation constants.
 Leave Link  601 at Tue Oct  8 13:25:02 2024, MaxMem=  2684354560 cpu:               1.3 elap:               0.2
 (Enter /gpfs/fs1/soft/bebop/software/custom-built/gaussian/16-c.02/g16/l701.exe)
 ... and contract with generalized density number  2.
 Compute integral first derivatives.
 R6Disp: Adding Grimme-D3(BJ) dispersion energy 1st derivatives to the gradient.
 Leave Link  701 at Tue Oct  8 13:25:02 2024, MaxMem=  2684354560 cpu:               0.8 elap:               0.2
 (Enter /gpfs/fs1/soft/bebop/software/custom-built/gaussian/16-c.02/g16/l702.exe)
 L702 exits ... SP integral derivatives will be done elsewhere.
 Leave Link  702 at Tue Oct  8 13:25:02 2024, MaxMem=  2684354560 cpu:               0.1 elap:               0.0
 (Enter /gpfs/fs1/soft/bebop/software/custom-built/gaussian/16-c.02/g16/l703.exe)
 Integral derivatives from FoFJK, PRISM(SPDF).
 Compute integral first derivatives, UseDBF=F ICtDFT=           0.
 Calling FoFJK, ICntrl=  10002127 FMM=F ISym2X=0 I1Cent= 0 IOpClX= 1 NMat=1 NMatS=1 NMatT=0.
 FoFJK:  IHMeth= 1 ICntrl=10002127 DoSepK=F KAlg= 0 I1Cent=           0 FoldK=F
 IRaf=         0 NMat=       1 IRICut=       1 DoRegI=T DoRafI=F ISym2E= 0 IDoP0=0 IntGTp=1.
 FoFCou: FMM=F IPFlag=           0 FMFlag=      100000 FMFlg1=         800
         NFxFlg=           0 DoJE=F BraDBF=F KetDBF=F FulRan=T
         wScrn=  0.000000 ICntrl=  10002127 IOpCl=  1 I1Cent=           0 NGrid=           0
         NMat0=    1 NMatS0=      1 NMatT0=    0 NMatD0=    1 NMtDS0=    0 NMtDT0=    0
 Symmetry not used in FoFCou.
 Leave Link  703 at Tue Oct  8 13:25:21 2024, MaxMem=  2684354560 cpu:             116.5 elap:              19.5
 (Enter /gpfs/fs1/soft/bebop/software/custom-built/gaussian/16-c.02/g16/l716.exe)
 Dipole        = 1.09377169D-01-3.16880835D-02 3.97759459D-01
 ***** Axes restored to original set *****
 -------------------------------------------------------------------
 Center     Atomic                   Forces (Hartrees/Bohr)
 Number     Number              X              Y              Z
 -------------------------------------------------------------------
      1        6          -0.000008894   -0.000020469    0.000014876
      2        6          -0.000066196   -0.000013258   -0.000014732
      3        6           0.000027207   -0.000000422   -0.000005145
      4        1           0.000013303    0.000007565    0.000004531
      5        8          -0.000003561    0.000001847    0.000001050
      6        6          -0.000035358    0.000045062    0.000041881
      7        1           0.000712448   -0.002761123   -0.001298217
      8        1           0.000017028    0.000009061    0.000000347
      9        1           0.000029344    0.000007634   -0.000006778
     10        1           0.000006925    0.000003958    0.000004681
     11        1           0.000005298   -0.000005667   -0.000040947
     12        1           0.000005432    0.000001591   -0.000009857
     13        1           0.000008570   -0.000027990   -0.000005705
     14       17          -0.000711544    0.002752211    0.001314016
 -------------------------------------------------------------------
 Cartesian Forces:  Max     0.002761123 RMS     0.000683828
 -----------------------------------------------------------------------------------------------
                       Internal Coordinate Forces (Hartree/Bohr or radian)
  Cent   Atom   N1       Length/X         N2         Alpha/Y        N3         Beta/Z          J
 -----------------------------------------------------------------------------------------------
      1  C 
      2  C        1  -0.000016(     1)
      3  C        1   0.000009(     2)      2   0.000033(    15)
      4  H        1  -0.000010(     3)      2  -0.000001(    16)      3   0.000023(    28)     0
      5  O        3   0.000001(     4)      1  -0.000010(    17)      2  -0.000007(    29)     0
      6  C        3  -0.000021(     5)      1   0.000036(    18)      5  -0.000016(    30)     0
      7  H        3  -0.000018(     6)      1  -0.000005(    19)      5   0.000005(    31)     0
      8  H        2   0.000007(     7)      1  -0.000004(    20)      3  -0.000002(    32)     0
      9  H        2  -0.000029(     8)      1   0.000006(    21)      8   0.000020(    33)     0
     10  H        2   0.000006(     9)      1   0.000005(    22)      8   0.000012(    34)     0
     11  H        6  -0.000036(    10)      3   0.000006(    23)      1  -0.000014(    35)     0
     12  H        6   0.000003(    11)      3   0.000000(    24)     11  -0.000021(    36)     0
     13  H        6   0.000024(    12)      3  -0.000004(    25)     11  -0.000033(    37)     0
         X        7   0.000000(    13)      3   0.000003(    26)      1  -0.000002(    38)     0
     14  Cl       7   0.003132(    14)     14   0.000001(    27)      3  -0.000012(    39)     0
 -----------------------------------------------------------------------------------------------
 Internal  Forces:  Max     0.003131707 RMS     0.000501732
 Force constants in internal coordinates: 
                1             2             3             4             5 
      1  0.325986D+00
      2  0.000000D+00  0.490219D+00
      3  0.000000D+00  0.000000D+00  0.355628D+00
      4  0.000000D+00  0.335970D-01  0.000000D+00  0.552631D+00
      5  0.000000D+00  0.000000D+00  0.000000D+00  0.000000D+00  0.325246D+00
      6  0.000000D+00  0.000000D+00  0.000000D+00  0.000000D+00  0.000000D+00
      7  0.000000D+00  0.000000D+00  0.000000D+00  0.000000D+00  0.000000D+00
      8  0.000000D+00  0.000000D+00  0.000000D+00  0.000000D+00  0.000000D+00
      9  0.000000D+00  0.000000D+00  0.000000D+00  0.000000D+00  0.000000D+00
     10  0.000000D+00  0.000000D+00  0.000000D+00  0.000000D+00  0.000000D+00
     11  0.000000D+00  0.000000D+00  0.000000D+00  0.000000D+00  0.000000D+00
     12  0.000000D+00  0.000000D+00  0.000000D+00  0.000000D+00  0.000000D+00
     13  0.000000D+00  0.000000D+00  0.000000D+00  0.000000D+00  0.000000D+00
     14  0.000000D+00  0.000000D+00  0.000000D+00  0.000000D+00  0.000000D+00
     15  0.000000D+00 -0.351869D-02  0.000000D+00  0.369592D-02  0.000000D+00
     16  0.000000D+00 -0.980228D-02  0.000000D+00  0.102960D-01  0.000000D+00
     17  0.000000D+00  0.527489D+00  0.000000D+00  0.438729D+00  0.000000D+00
[...]
                   11         12         13         14         15
    11  H    0.000000
    12  H    1.770172   0.000000
    13  H    1.760572   1.765286   0.000000
    14  X    2.819214   1.933688   1.851875   0.000000
    15  Cl   4.049093   3.093498   4.408557   3.170876   0.000000
 Stoichiometry    C4H8ClO(2)
 Framework group  C1[X(C4H8ClO)]
 Deg. of freedom    36
 Full point group                 C1      NOp   1
 RotChk:  IX=3 Diff= 9.17D-02
 Largest Abelian subgroup         C1      NOp   1
 Largest concise Abelian subgroup C1      NOp   1
                         Standard orientation:                         
 ---------------------------------------------------------------------
 Center     Atomic      Atomic             Coordinates (Angstroms)
 Number     Number       Type             X           Y           Z
 ---------------------------------------------------------------------
      1          6           0        0.606149   -0.750334   -0.425652
      2          6           0        0.811330   -1.591216    0.797981
      3          6           0        0.631498    0.745980   -0.427450
      4          1           0        0.046872   -1.232903   -1.219617
      5          8           0        1.734607   -0.020097   -0.923353
      6          6           0        0.862052    1.582426    0.794408
      7          1           0        0.078935    1.239151   -1.218590
      8          1           0       -0.150256   -1.886855    1.214326
      9          1           0        1.359007   -2.493799    0.528965
     10          1           0        1.380436   -1.066686    1.559222
     11          1           0        1.394047    1.035728    1.566709
     12          1           0       -0.089574    1.927202    1.195695
     13          1           0        1.456643    2.455670    0.527738
     14         17           0       -2.165832    0.015420   -0.070785
 ---------------------------------------------------------------------
 Rotational constants (GHZ):           3.5254004           1.7415036           1.4666886
 Leave Link  202 at Tue Oct  8 13:55:52 2024, MaxMem=  2684354560 cpu:               0.1 elap:               0.0
 (Enter /gpfs/fs1/soft/bebop/software/custom-built/gaussian/16-c.02/g16/l301.exe)
 Standard basis: CC-pVTZ (5D, 7F)
 Ernie: Thresh=  0.10000D-02 Tol=  0.10000D-05 Strict=F.
 Ernie:  28 primitive shells out of 254 were deleted.
 There are   334 symmetry adapted cartesian basis functions of A   symmetry.
 There are   296 symmetry adapted basis functions of A   symmetry.
   296 basis functions,   490 primitive gaussians,   334 cartesian basis functions
    29 alpha electrons       28 beta electrons
       nuclear repulsion energy       290.4675443094 Hartrees.
 IExCor=  419 DFT=T Ex+Corr=B2PLYPD3 ExCW=0 ScaHFX=  0.530000
 ScaDFX=  0.470000  0.470000  0.730000  0.730000 ScalE2=  0.270000  0.270000
 IRadAn=      5 IRanWt=     -1 IRanGd=            0 ICorTp=0 IEmpDi=141
 NAtoms=   14 NActive=   14 NUniq=   14 SFac= 1.00D+00 NAtFMM=   60 NAOKFM=F Big=F
 Integral buffers will be    131072 words long.
 Regular integral format.
 Two-electron integral symmetry is turned on.
 R6Disp:  Grimme-D3(BJ) Dispersion energy=       -0.0088472556 Hartrees.
 Nuclear repulsion after empirical dispersion term =      290.4586970538 Hartrees.
 Leave Link  301 at Tue Oct  8 13:55:52 2024, MaxMem=  2684354560 cpu:               0.3 elap:               0.1
 (Enter /gpfs/fs1/soft/bebop/software/custom-built/gaussian/16-c.02/g16/l302.exe)
 NPDir=0 NMtPBC=     1 NCelOv=     1 NCel=       1 NClECP=     1 NCelD=      1
         NCelK=      1 NCelE2=     1 NClLst=     1 CellRange=     0.0.
 One-electron integrals computed using PRISM.
 One-electron integral symmetry used in STVInt
 NBasis=   296 RedAO= T EigKep=  2.60D-04  NBF=   296
 NBsUse=   296 1.00D-06 EigRej= -1.00D+00 NBFU=   296
 Precomputing XC quadrature grid using
 IXCGrd= 4 IRadAn=           5 IRanWt=          -1 IRanGd=           0 AccXCQ= 0.00D+00.
 Generated NRdTot=       0 NPtTot=           0 NUsed=           0 NTot=          32
 NSgBfM=   334   334   334   334   334 MxSgAt=    14 MxSgA2=    14.
 Leave Link  302 at Tue Oct  8 13:55:52 2024, MaxMem=  2684354560 cpu:               1.1 elap:               0.2
 (Enter /gpfs/fs1/soft/bebop/software/custom-built/gaussian/16-c.02/g16/l303.exe)
 DipDrv:  MaxL=1.
 Leave Link  303 at Tue Oct  8 13:55:52 2024, MaxMem=  2684354560 cpu:               0.2 elap:               0.1
 (Enter /gpfs/fs1/soft/bebop/software/custom-built/gaussian/16-c.02/g16/l401.exe)
 Initial guess from the checkpoint file:  "/scratch/Gau-1826950.chk"
 B after Tr=    -0.000000    0.000000    0.000000
         Rot=    0.999839    0.001591    0.008345    0.015816 Ang=   2.06 deg.
 Guess basis will be translated and rotated to current coordinates.
 JPrj=2 DoOrth=T DoCkMO=T.
 Initial guess <Sx>= 0.0000 <Sy>= 0.0000 <Sz>= 0.5000 <S**2>= 0.7563 S= 0.5031
 Generating alternative initial guess.
 ExpMin= 1.03D-01 ExpMax= 4.56D+05 ExpMxC= 1.44D+03 IAcc=3 IRadAn=         5 AccDes= 0.00D+00
 Harris functional with IExCor=  419 and IRadAn=       5 diagonalized for initial guess.
 HarFok:  IExCor=  419 AccDes= 0.00D+00 IRadAn=         5 IDoV= 1 UseB2=F ITyADJ=14
 ICtDFT=  3500011 ScaDFX=  1.000000  1.000000  1.000000  1.000000
 FoFCou: FMM=F IPFlag=           0 FMFlag=      100000 FMFlg1=           0
         NFxFlg=           0 DoJE=T BraDBF=F KetDBF=T FulRan=T
         wScrn=  0.000000 ICntrl=       500 IOpCl=  0 I1Cent=   200000004 NGrid=           0
         NMat0=    1 NMatS0=      1 NMatT0=    0 NMatD0=    1 NMtDS0=    0 NMtDT0=    0
 Petite list used in FoFCou.
 Harris En= -692.665840862360    
 Leave Link  401 at Tue Oct  8 13:55:53 2024, MaxMem=  2684354560 cpu:               6.1 elap:               1.0
 (Enter /gpfs/fs1/soft/bebop/software/custom-built/gaussian/16-c.02/g16/l502.exe)
 Keep R1 and R2 ints in memory in canonical form, NReq=1950973320.
 FoFCou: FMM=F IPFlag=           0 FMFlag=           0 FMFlg1=           0
         NFxFlg=           0 DoJE=F BraDBF=F KetDBF=F FulRan=T
         wScrn=  0.000000 ICntrl=       600 IOpCl=  0 I1Cent=           0 NGrid=           0
         NMat0=    1 NMatS0=  43956 NMatT0=    0 NMatD0=    1 NMtDS0=    0 NMtDT0=    0
 Symmetry not used in FoFCou.
 Two-electron integral symmetry not used.
 UHF open shell SCF:
 Using DIIS extrapolation, IDIIS=  1040.
 NGot=  2684354560 LenX=   751952220 LenY=   751840223
 Requested convergence on RMS density matrix=1.00D-08 within  32 cycles.
 Requested convergence on MAX density matrix=1.00D-06.
 Requested convergence on             energy=1.00D-06.
 No special actions if energy rises.
 Integral accuracy reduced to 1.0D-05 until final iterations.

 Cycle   1  Pass 0  IDiag  1:
 E= -691.993291077789    
 DIIS: error= 1.62D-03 at cycle   1 NSaved=   1.
 NSaved= 1 IEnMin= 1 EnMin= -691.993291077789     IErMin= 1 ErrMin= 1.62D-03
 ErrMax= 1.62D-03  0.00D+00 EMaxC= 1.00D-01 BMatC= 4.40D-03 BMatP= 4.40D-03
 IDIUse=3 WtCom= 9.84D-01 WtEn= 1.62D-02
 Coeff-Com:  0.100D+01
 Coeff-En:   0.100D+01
 Coeff:      0.100D+01
 Gap=     0.917 Goal=   None    Shift=    0.000
 Gap=     0.900 Goal=   None    Shift=    0.000
 GapD=    0.900 DampG=2.000 DampE=1.000 DampFc=2.0000 IDamp=-1.
 RMSDP=9.27D-05 MaxDP=2.41D-03              OVMax= 8.67D-03

 Cycle   2  Pass 0  IDiag  1:
 E= -691.994745180167     Delta-E=       -0.001454102378 Rises=F Damp=F
 DIIS: error= 2.63D-04 at cycle   2 NSaved=   2.
 NSaved= 2 IEnMin= 2 EnMin= -691.994745180167     IErMin= 2 ErrMin= 2.63D-04
 ErrMax= 2.63D-04  0.00D+00 EMaxC= 1.00D-01 BMatC= 1.30D-04 BMatP= 4.40D-03
 IDIUse=3 WtCom= 9.97D-01 WtEn= 2.63D-03
 Coeff-Com: -0.150D+00 0.115D+01
 Coeff-En:   0.000D+00 0.100D+01
 Coeff:     -0.150D+00 0.115D+01
 Gap=     0.428 Goal=   None    Shift=    0.000
 Gap=     0.196 Goal=   None    Shift=    0.000
 RMSDP=2.39D-05 MaxDP=6.02D-04 DE=-1.45D-03 OVMax= 2.57D-03

 Cycle   3  Pass 0  IDiag  1:
 E= -691.994810626352     Delta-E=       -0.000065446185 Rises=F Damp=F
 DIIS: error= 1.17D-04 at cycle   3 NSaved=   3.
 NSaved= 3 IEnMin= 3 EnMin= -691.994810626352     IErMin= 3 ErrMin= 1.17D-04
 ErrMax= 1.17D-04  0.00D+00 EMaxC= 1.00D-01 BMatC= 2.30D-05 BMatP= 1.30D-04
 IDIUse=3 WtCom= 9.99D-01 WtEn= 1.17D-03
 Coeff-Com: -0.605D-01 0.387D+00 0.674D+00
 Coeff-En:   0.000D+00 0.000D+00 0.100D+01
 Coeff:     -0.604D-01 0.386D+00 0.674D+00
 Gap=     0.429 Goal=   None    Shift=    0.000
 Gap=     0.197 Goal=   None    Shift=    0.000
 RMSDP=7.47D-06 MaxDP=2.83D-04 DE=-6.54D-05 OVMax= 1.39D-03

 Initial convergence to 1.0D-05 achieved.  Increase integral accuracy.
 Cycle   4  Pass 1  IDiag  1:
 E= -691.994823252327     Delta-E=       -0.000012625974 Rises=F Damp=F
 DIIS: error= 6.35D-05 at cycle   1 NSaved=   1.
 NSaved= 1 IEnMin= 1 EnMin= -691.994823252327     IErMin= 1 ErrMin= 6.35D-05
 ErrMax= 6.35D-05  0.00D+00 EMaxC= 1.00D-01 BMatC= 7.53D-06 BMatP= 7.53D-06
 IDIUse=1 WtCom= 1.00D+00 WtEn= 0.00D+00
 Coeff-Com:  0.100D+01
 Coeff:      0.100D+01
 Gap=     0.428 Goal=   None    Shift=    0.000
 Gap=     0.196 Goal=   None    Shift=    0.000
 RMSDP=7.47D-06 MaxDP=2.83D-04 DE=-1.26D-05 OVMax= 6.28D-04

 Cycle   5  Pass 1  IDiag  1:
 E= -691.994822765854     Delta-E=        0.000000486472 Rises=F Damp=F
 DIIS: error= 8.39D-05 at cycle   2 NSaved=   2.
 NSaved= 2 IEnMin= 1 EnMin= -691.994823252327     IErMin= 1 ErrMin= 6.35D-05
 ErrMax= 8.39D-05  0.00D+00 EMaxC= 1.00D-01 BMatC= 1.28D-05 BMatP= 7.53D-06
 IDIUse=1 WtCom= 1.00D+00 WtEn= 0.00D+00
 Coeff-Com:  0.568D+00 0.432D+00
 Coeff:      0.568D+00 0.432D+00
 Gap=     0.429 Goal=   None    Shift=    0.000
 Gap=     0.197 Goal=   None    Shift=    0.000
 RMSDP=3.17D-06 MaxDP=1.45D-04 DE= 4.86D-07 OVMax= 5.00D-04

 Cycle   6  Pass 1  IDiag  1:
 E= -691.994825048229     Delta-E=       -0.000002282375 Rises=F Damp=F
 DIIS: error= 1.84D-05 at cycle   3 NSaved=   3.
 NSaved= 3 IEnMin= 3 EnMin= -691.994825048229     IErMin= 3 ErrMin= 1.84D-05
 ErrMax= 1.84D-05  0.00D+00 EMaxC= 1.00D-01 BMatC= 9.79D-08 BMatP= 7.53D-06
 IDIUse=1 WtCom= 1.00D+00 WtEn= 0.00D+00
 Coeff-Com: -0.190D+00-0.104D+00 0.129D+01
 Coeff:     -0.190D+00-0.104D+00 0.129D+01
 Gap=     0.429 Goal=   None    Shift=    0.000
 Gap=     0.197 Goal=   None    Shift=    0.000
 RMSDP=1.52D-06 MaxDP=1.59D-04 DE=-2.28D-06 OVMax= 5.66D-04

 Cycle   7  Pass 1  IDiag  1:
 E= -691.994825249864     Delta-E=       -0.000000201635 Rises=F Damp=F
 DIIS: error= 1.66D-05 at cycle   4 NSaved=   4.
 NSaved= 4 IEnMin= 4 EnMin= -691.994825249864     IErMin= 4 ErrMin= 1.66D-05
 ErrMax= 1.66D-05  0.00D+00 EMaxC= 1.00D-01 BMatC= 6.10D-08 BMatP= 9.79D-08
 IDIUse=1 WtCom= 1.00D+00 WtEn= 0.00D+00
 Coeff-Com: -0.159D+00-0.101D+00 0.557D+00 0.703D+00
 Coeff:     -0.159D+00-0.101D+00 0.557D+00 0.703D+00
 Gap=     0.429 Goal=   None    Shift=    0.000
 Gap=     0.197 Goal=   None    Shift=    0.000
 RMSDP=8.56D-07 MaxDP=9.85D-05 DE=-2.02D-07 OVMax= 3.54D-04

 Cycle   8  Pass 1  IDiag  1:
 E= -691.994825350058     Delta-E=       -0.000000100193 Rises=F Damp=F
 DIIS: error= 1.57D-05 at cycle   5 NSaved=   5.
 NSaved= 5 IEnMin= 5 EnMin= -691.994825350058     IErMin= 5 ErrMin= 1.57D-05
 ErrMax= 1.57D-05  0.00D+00 EMaxC= 1.00D-01 BMatC= 3.71D-08 BMatP= 6.10D-08
 IDIUse=1 WtCom= 1.00D+00 WtEn= 0.00D+00
 Coeff-Com:  0.196D+00 0.118D+00-0.999D+00-0.542D+00 0.223D+01
 Coeff:      0.196D+00 0.118D+00-0.999D+00-0.542D+00 0.223D+01
 Gap=     0.429 Goal=   None    Shift=    0.000
 Gap=     0.197 Goal=   None    Shift=    0.000
 RMSDP=2.32D-06 MaxDP=2.80D-04 DE=-1.00D-07 OVMax= 1.01D-03

 Cycle   9  Pass 1  IDiag  1:
 E= -691.994825586561     Delta-E=       -0.000000236503 Rises=F Damp=F
 DIIS: error= 1.34D-05 at cycle   6 NSaved=   6.
 NSaved= 6 IEnMin= 6 EnMin= -691.994825586561     IErMin= 6 ErrMin= 1.34D-05
 ErrMax= 1.34D-05  0.00D+00 EMaxC= 1.00D-01 BMatC= 2.68D-08 BMatP= 3.71D-08
 IDIUse=1 WtCom= 1.00D+00 WtEn= 0.00D+00
 Coeff-Com: -0.662D-02-0.369D-02 0.113D+00-0.250D-01-0.837D+00 0.176D+01
 Coeff:     -0.662D-02-0.369D-02 0.113D+00-0.250D-01-0.837D+00 0.176D+01
 Gap=     0.429 Goal=   None    Shift=    0.000
 Gap=     0.197 Goal=   None    Shift=    0.000
 RMSDP=2.22D-06 MaxDP=2.68D-04 DE=-2.37D-07 OVMax= 9.77D-04

 Cycle  10  Pass 1  IDiag  1:
 E= -691.994825780411     Delta-E=       -0.000000193851 Rises=F Damp=F
 DIIS: error= 1.14D-05 at cycle   7 NSaved=   7.
 NSaved= 7 IEnMin= 7 EnMin= -691.994825780411     IErMin= 7 ErrMin= 1.14D-05
 ErrMax= 1.14D-05  0.00D+00 EMaxC= 1.00D-01 BMatC= 2.10D-08 BMatP= 2.68D-08
 IDIUse=1 WtCom= 1.00D+00 WtEn= 0.00D+00
 Coeff-Com: -0.346D+00-0.214D+00 0.177D+01 0.109D+01-0.425D+01 0.494D+00
 Coeff-Com:  0.246D+01
 Coeff:     -0.346D+00-0.214D+00 0.177D+01 0.109D+01-0.425D+01 0.494D+00
 Coeff:      0.246D+01
 Gap=     0.429 Goal=   None    Shift=    0.000
 Gap=     0.197 Goal=   None    Shift=    0.000
 RMSDP=5.35D-06 MaxDP=6.44D-04 DE=-1.94D-07 OVMax= 2.36D-03

 Cycle  11  Pass 1  IDiag  1:
 E= -691.994826125200     Delta-E=       -0.000000344789 Rises=F Damp=F
 DIIS: error= 6.67D-06 at cycle   8 NSaved=   8.
 NSaved= 8 IEnMin= 8 EnMin= -691.994826125200     IErMin= 8 ErrMin= 6.67D-06
 ErrMax= 6.67D-06  0.00D+00 EMaxC= 1.00D-01 BMatC= 8.54D-09 BMatP= 2.10D-08
 IDIUse=1 WtCom= 1.00D+00 WtEn= 0.00D+00
 Coeff-Com: -0.372D-01-0.295D-01 0.966D-01 0.228D+00 0.245D+00-0.167D+01
 Coeff-Com:  0.322D+00 0.184D+01
 Coeff:     -0.372D-01-0.295D-01 0.966D-01 0.228D+00 0.245D+00-0.167D+01
 Coeff:      0.322D+00 0.184D+01
 Gap=     0.429 Goal=   None    Shift=    0.000
 Gap=     0.197 Goal=   None    Shift=    0.000
 RMSDP=5.87D-06 MaxDP=7.03D-04 DE=-3.45D-07 OVMax= 2.58D-03

 Cycle  12  Pass 1  IDiag  1:
 E= -691.994826300401     Delta-E=       -0.000000175202 Rises=F Damp=F
 DIIS: error= 1.66D-06 at cycle   9 NSaved=   9.
 NSaved= 9 IEnMin= 9 EnMin= -691.994826300401     IErMin= 9 ErrMin= 1.66D-06
 ErrMax= 1.66D-06  0.00D+00 EMaxC= 1.00D-01 BMatC= 1.09D-09 BMatP= 8.54D-09
 IDIUse=1 WtCom= 1.00D+00 WtEn= 0.00D+00
 Coeff-Com:  0.691D-01 0.418D-01-0.369D+00-0.191D+00 0.967D+00-0.457D+00
 Coeff-Com: -0.450D+00 0.372D+00 0.102D+01
 Coeff:      0.691D-01 0.418D-01-0.369D+00-0.191D+00 0.967D+00-0.457D+00
 Coeff:     -0.450D+00 0.372D+00 0.102D+01
 Gap=     0.429 Goal=   None    Shift=    0.000
 Gap=     0.197 Goal=   None    Shift=    0.000
 RMSDP=1.46D-06 MaxDP=1.75D-04 DE=-1.75D-07 OVMax= 6.44D-04

 Cycle  13  Pass 1  IDiag  1:
 E= -691.994826310832     Delta-E=       -0.000000010430 Rises=F Damp=F
 DIIS: error= 3.68D-07 at cycle  10 NSaved=  10.
 NSaved=10 IEnMin=10 EnMin= -691.994826310832     IErMin=10 ErrMin= 3.68D-07
 ErrMax= 3.68D-07  0.00D+00 EMaxC= 1.00D-01 BMatC= 2.25D-10 BMatP= 1.09D-09
 IDIUse=1 WtCom= 1.00D+00 WtEn= 0.00D+00
 Coeff-Com:  0.260D-01 0.175D-01-0.120D+00-0.974D-01 0.244D+00 0.141D+00
 Coeff-Com: -0.171D+00-0.221D+00 0.267D+00 0.914D+00
 Coeff:      0.260D-01 0.175D-01-0.120D+00-0.974D-01 0.244D+00 0.141D+00
 Coeff:     -0.171D+00-0.221D+00 0.267D+00 0.914D+00
 Gap=     0.429 Goal=   None    Shift=    0.000
 Gap=     0.197 Goal=   None    Shift=    0.000
 RMSDP=2.87D-07 MaxDP=3.43D-05 DE=-1.04D-08 OVMax= 1.26D-04

 Cycle  14  Pass 1  IDiag  1:
 E= -691.994826311357     Delta-E=       -0.000000000525 Rises=F Damp=F
 DIIS: error= 1.75D-07 at cycle  11 NSaved=  11.
 NSaved=11 IEnMin=11 EnMin= -691.994826311357     IErMin=11 ErrMin= 1.75D-07
 ErrMax= 1.75D-07  0.00D+00 EMaxC= 1.00D-01 BMatC= 4.34D-11 BMatP= 2.25D-10
 IDIUse=1 WtCom= 1.00D+00 WtEn= 0.00D+00
 Coeff-Com: -0.109D-01-0.629D-02 0.611D-01 0.195D-01-0.168D+00 0.120D+00
 Coeff-Com:  0.777D-01-0.116D+00-0.191D+00 0.171D+00 0.104D+01
 Coeff:     -0.109D-01-0.629D-02 0.611D-01 0.195D-01-0.168D+00 0.120D+00
 Coeff:      0.777D-01-0.116D+00-0.191D+00 0.171D+00 0.104D+01
 Gap=     0.429 Goal=   None    Shift=    0.000
 Gap=     0.197 Goal=   None    Shift=    0.000
 RMSDP=8.13D-08 MaxDP=9.63D-06 DE=-5.25D-10 OVMax= 3.54D-05

 Cycle  15  Pass 1  IDiag  1:
 E= -691.994826311410     Delta-E=       -0.000000000053 Rises=F Damp=F
 DIIS: error= 5.63D-08 at cycle  12 NSaved=  12.
 NSaved=12 IEnMin=12 EnMin= -691.994826311410     IErMin=12 ErrMin= 5.63D-08
 ErrMax= 5.63D-08  0.00D+00 EMaxC= 1.00D-01 BMatC= 5.55D-12 BMatP= 4.34D-11
 IDIUse=1 WtCom= 1.00D+00 WtEn= 0.00D+00
 Coeff-Com: -0.454D-02-0.299D-02 0.224D-01 0.133D-01-0.450D-01-0.120D-01
 Coeff-Com:  0.312D-01 0.229D-01-0.616D-01-0.108D+00 0.871D-01 0.106D+01
 Coeff:     -0.454D-02-0.299D-02 0.224D-01 0.133D-01-0.450D-01-0.120D-01
 Coeff:      0.312D-01 0.229D-01-0.616D-01-0.108D+00 0.871D-01 0.106D+01
 Gap=     0.429 Goal=   None    Shift=    0.000
 Gap=     0.197 Goal=   None    Shift=    0.000
 RMSDP=1.11D-08 MaxDP=1.05D-06 DE=-5.33D-11 OVMax= 3.83D-06

 Cycle  16  Pass 1  IDiag  1:
 E= -691.994826311413     Delta-E=       -0.000000000003 Rises=F Damp=F
 DIIS: error= 2.89D-08 at cycle  13 NSaved=  13.
 NSaved=13 IEnMin=13 EnMin= -691.994826311413     IErMin=13 ErrMin= 2.89D-08
 ErrMax= 2.89D-08  0.00D+00 EMaxC= 1.00D-01 BMatC= 1.01D-12 BMatP= 5.55D-12
 IDIUse=1 WtCom= 1.00D+00 WtEn= 0.00D+00
 Coeff-Com:  0.200D-02 0.122D-02-0.110D-01-0.454D-02 0.313D-01-0.222D-01
 Coeff-Com: -0.131D-01 0.211D-01 0.311D-01-0.284D-01-0.201D+00 0.505D-01
 Coeff-Com:  0.114D+01
 Coeff:      0.200D-02 0.122D-02-0.110D-01-0.454D-02 0.313D-01-0.222D-01
 Coeff:     -0.131D-01 0.211D-01 0.311D-01-0.284D-01-0.201D+00 0.505D-01
 Coeff:      0.114D+01
 Gap=     0.429 Goal=   None    Shift=    0.000
 Gap=     0.197 Goal=   None    Shift=    0.000
 RMSDP=4.34D-09 MaxDP=2.62D-07 DE=-3.18D-12 OVMax= 8.93D-07

 SCF Done:  E(UB2PLYPD3) =  -691.994826311     A.U. after   16 cycles
            NFock= 16  Conv=0.43D-08     -V/T= 2.0026
 <Sx>= 0.0000 <Sy>= 0.0000 <Sz>= 0.5000 <S**2>= 0.7562 S= 0.5031
 <L.S>=  0.00000000000    
 KE= 6.901916373109D+02 PE=-2.216135193614D+03 EE= 5.434900329377D+02
 Annihilation of the first spin contaminant:
 S**2 before annihilation     0.7562,   after     0.7500
 Leave Link  502 at Tue Oct  8 13:57:14 2024, MaxMem=  2684354560 cpu:             237.8 elap:              81.1
 (Enter /gpfs/fs1/soft/bebop/software/custom-built/gaussian/16-c.02/g16/l508.exe)
 QCSCF skips out because SCF is already converged.
 Leave Link  508 at Tue Oct  8 13:57:14 2024, MaxMem=  2684354560 cpu:               0.0 elap:               0.0
 (Enter /gpfs/fs1/soft/bebop/software/custom-built/gaussian/16-c.02/g16/l801.exe)
 DoSCS=T DFT=T ScalE2(SS,OS)=  0.270000  0.270000
 ExpMin= 1.03D-01 ExpMax= 4.56D+05 ExpMxC= 1.44D+03 IAcc=3 IRadAn=         5 AccDes= 0.00D+00
 HarFok:  IExCor=  205 AccDes= 0.00D+00 IRadAn=         5 IDoV=-2 UseB2=F ITyADJ=14
 ICtDFT= 12500011 ScaDFX=  1.000000  1.000000  1.000000  1.000000
 Largest valence mixing into a core orbital is  1.86D-04
 Largest core mixing into a valence orbital is  7.39D-05
 Largest valence mixing into a core orbital is  1.95D-04
 Largest core mixing into a valence orbital is  6.98D-05
 Range of M.O.s used for correlation:    11   296
 NBasis=   296 NAE=    29 NBE=    28 NFC=    10 NFV=     0
 NROrb=    286 NOA=    19 NOB=    18 NVA=   267 NVB=   268

 **** Warning!!: The largest alpha MO coefficient is  0.13138444D+02


 **** Warning!!: The largest beta MO coefficient is  0.11549590D+02

 Leave Link  801 at Tue Oct  8 13:57:14 2024, MaxMem=  2684354560 cpu:               0.6 elap:               0.1
 (Enter /gpfs/fs1/soft/bebop/software/custom-built/gaussian/16-c.02/g16/l906.exe)
 DoSCS=T DFT=T ScalE2(SS,OS)=  0.270000  0.270000
 Frozen-core derivative calculation, NFC=  10 NFV=   0.
 FulOut=F Deriv=T AODrv=T NAtomX=    14
   MMem=          23  MDisk=          19 MDiskD=          19
  W3Min=     5734112 MinDsk=     4243203 NBas6D=         334
 NBas2D=       56620    NTT=       55945    LW2=     3500000
    MDV=  2682926981 MDiskM=       40133 NBas2p=       55658
 Fully direct method using O(ONN) memory.
 IMap=   1   2   3   4   5   6   7   8   9  10  11  12  13  14  15  16  17  18  19  20
 IMap=  21  22  23  24  25  26  27  28  29
 JobTyp=2 Pass  1:  I=  11 to  29 NPSUse=  6 ParTrn=T ParDer=T DoDerP=T.
