 Entering Gaussian System, Link 0=g16
 Input=run.inp
 Output=run.out
 Initial command:
 /gpfs/fs1/soft/bebop/software/custom-built/gaussian/16-c.02/g16/l1.exe "/scratch/Gau-1814513.inp" -scrdir="/scratch/"
 Default CPUs for threads: 0-35
 Default is to use a total of  36 processors:
                               36 via shared-memory
                                1 via Linda
 Entering Link 1 = /gpfs/fs1/soft/bebop/software/custom-built/gaussian/16-c.02/g16/l1.exe PID=   1814514.
  
 Copyright (c) 1988-2019, Gaussian, Inc.  All Rights Reserved.
  
 This is part of the Gaussian(R) 16 program.  It is based on
 the Gaussian(R) 09 system (copyright 2009, Gaussian, Inc.),
 the Gaussian(R) 03 system (copyright 2003, Gaussian, Inc.),
 the Gaussian(R) 98 system (copyright 1998, Gaussian, Inc.),
 the Gaussian(R) 94 system (copyright 1995, Gaussian, Inc.),
 the Gaussian 92(TM) system (copyright 1992, Gaussian, Inc.),
 the Gaussian 90(TM) system (copyright 1990, Gaussian, Inc.),
 the Gaussian 88(TM) system (copyright 1988, Gaussian, Inc.),
 the Gaussian 86(TM) system (copyright 1986, Carnegie Mellon
 University), and the Gaussian 82(TM) system (copyright 1983,
 Carnegie Mellon University). Gaussian is a federally registered
 trademark of Gaussian, Inc.
  
 This software contains proprietary and confidential information,
 including trade secrets, belonging to Gaussian, Inc.
  
 This software is provided under written license and may be
 used, copied, transmitted, or stored only in accord with that
 written license.
  
 The following legend is applicable only to US Government
 contracts under FAR:
  
                    RESTRICTED RIGHTS LEGEND
  
 Use, reproduction and disclosure by the US Government is
 subject to restrictions as set forth in subparagraphs (a)
 and (c) of the Commercial Computer Software - Restricted
 Rights clause in FAR 52.227-19.
  
 Gaussian, Inc.
 340 Quinnipiac St., Bldg. 40, Wallingford CT 06492
  
  
 ---------------------------------------------------------------
 Warning -- This program may not be used in any manner that
 competes with the business of Gaussian, Inc. or will provide
 assistance to any competitor of Gaussian, Inc.  The licensee
 of this program is prohibited from giving any competitor of
 Gaussian, Inc. access to this program.  By using this program,
 the user acknowledges that Gaussian, Inc. is engaged in the
 business of creating and licensing software in the field of
 computational chemistry and represents and warrants to the
 licensee that it is not a competitor of Gaussian, Inc. and that
 it will not use this program in any manner prohibited above.
 ---------------------------------------------------------------
  

 Cite this work as:
 Gaussian 16, Revision C.01,
 M. J. Frisch, G. W. Trucks, H. B. Schlegel, G. E. Scuseria, 
 M. A. Robb, J. R. Cheeseman, G. Scalmani, V. Barone, 
 G. A. Petersson, H. Nakatsuji, X. Li, M. Caricato, A. V. Marenich, 
 J. Bloino, B. G. Janesko, R. Gomperts, B. Mennucci, H. P. Hratchian, 
 J. V. Ortiz, A. F. Izmaylov, J. L. Sonnenberg, D. Williams-Young, 
 F. Ding, F. Lipparini, F. Egidi, J. Goings, B. Peng, A. Petrone, 
 T. Henderson, D. Ranasinghe, V. G. Zakrzewski, J. Gao, N. Rega, 
 G. Zheng, W. Liang, M. Hada, M. Ehara, K. Toyota, R. Fukuda, 
 J. Hasegawa, M. Ishida, T. Nakajima, Y. Honda, O. Kitao, H. Nakai, 
 T. Vreven, K. Throssell, J. A. Montgomery, Jr., J. E. Peralta, 
 F. Ogliaro, M. J. Bearpark, J. J. Heyd, E. N. Brothers, K. N. Kudin, 
 V. N. Staroverov, T. A. Keith, R. Kobayashi, J. Normand, 
 K. Raghavachari, A. P. Rendell, J. C. Burant, S. S. Iyengar, 
 J. Tomasi, M. Cossi, J. M. Millam, M. Klene, C. Adamo, R. Cammi, 
 J. W. Ochterski, R. L. Martin, K. Morokuma, O. Farkas, 
 J. B. Foresman, and D. J. Fox, Gaussian, Inc., Wallingford CT, 2019.
 
 ******************************************
 Gaussian 16:  ES64L-G16RevC.01  3-Jul-2019
                 7-Oct-2024 
 ******************************************
 %mem=20GB
 %NProcShared=6
 Will use up to    6 processors via shared memory.
 ---------------------------------------------------------
 #P b2plypd3/cc-pvtz # SCF=(xqc) # POpt=() # int=ultrafine
 ---------------------------------------------------------
 1/10=7,38=1/1,3;
 2/12=2,17=6,18=5,29=3,40=1/2;
 3/5=16,6=1,11=9,25=1,30=1,71=1,74=-60,75=-5/1,2,3;
 4//1;
 5/5=2,8=3,13=1,38=5/2,8;
 8/6=4,10=1/1;
 9/15=2,16=-3/6;
 10/5=1/2;
 6/7=2,8=2,9=2,10=2/1;
 7/12=2,29=1/1,2,3,16;
 1/10=7/3(2);
 2/29=3/2;
 99//99;
 2/29=3/2;
 3/5=16,6=1,11=9,25=1,30=1,71=1,74=-60,75=-5/1,2,3;
 4/5=5,16=3,69=1/1;
 5/5=2,8=3,13=1,38=5/2,8;
 8/6=4,10=1/1;
 9/15=2,16=-3/6;
 10/5=1/2;
 7/12=2/1,2,3,16;
 1//3(-8);
 2/29=3/2;
 6/7=2,8=2,9=2,10=2/1;
 99/9=10/99;
 Leave Link    1 at Mon Oct  7 11:17:48 2024, MaxMem=  2684354560 cpu:               0.9 elap:               0.1
 (Enter /gpfs/fs1/soft/bebop/software/custom-built/gaussian/16-c.02/g16/l101.exe)
 --------
 comment:
 --------
 Symbolic Z-matrix:
 Charge =  0 Multiplicity = 2
 C
 C                    1    R1
 C                    1    R2       2    A2
 H                    1    R3       2    A3       3    D3       0
 O                    3    R4       1    A4       2    D4       0
 C                    3    R5       1    A5       5    D5       0
 H                    3    R6       1    A6       5    D6       0
 H                    2    R7       1    A7       3    D7       0
 H                    2    R8       1    A8       8    D8       0
 H                    2    R9       1    A9       8    D9       0
 H                    6    R10      3    A10      1    D10      0
 H                    6    R11      3    A11      11   D11      0
 H                    6    R12      3    A12      11   D12      0
 X                    7    R13      3    A13      6    D13      0
 Cl                   7    R14      14   A14      3    D14      0
       Variables:
  R1                    1.4971                   
  R2                    1.4485                   
  R3                    1.0833                   
  R4                    1.3668                   
  R5                    1.4826                   
  R6                    1.9551                   
  R7                    1.0871                   
  R8                    1.0893                   
  R9                    1.0902                   
  R10                   1.0885                   
  R11                   1.0875                   
  R12                   1.0942                   
  A2                  123.949                    
  A3                  116.3381                   
  A4                   63.8296                   
  A5                  135.9829                   
  A6                  105.8099                   
  A7                  111.2192                   
  A8                  110.6014                   
  A9                  109.6875                   
  A10                 110.0334                   
  A11                 110.3156                   
  A12                 111.0413                   
  A14                  85.8977                   
  D3                  198.2514                   
  D4                   99.4011                   
  D5                  247.1757                   
  D6                  107.3963                   
  D7                  339.5515                   
  D8                  239.1756                   
  D9                  120.2382                   
  D10                 149.6366                   
  D11                 119.8448                   
  D12                 240.4042                   
  D14                 175.152                    
       Constants:
  R13                   1.                       
  R14                   1.27866                  
  A13                  90.                       
  D13                 310.8195                   
 
 ITRead=  0  0  0  0  0  0  0  0  0  0  0  0  0  0
 MicOpt= -1 -1 -1 -1 -1 -1 -1 -1 -1 -1 -1 -1 -1 -1
 NAtoms=     14 NQM=       14 NQMF=       0 NMMI=      0 NMMIF=      0
                NMic=       0 NMicF=      0.
                    Isotopes and Nuclear Properties:
 (Nuclear quadrupole moments (NQMom) in fm**2, nuclear magnetic moments (NMagM)
  in nuclear magnetons)

  Atom         1           2           3           4           5           6           7           8           9          10
 IAtWgt=          12          12          12           1          16          12           1           1           1           1
 AtmWgt=  12.0000000  12.0000000  12.0000000   1.0078250  15.9949146  12.0000000   1.0078250   1.0078250   1.0078250   1.0078250
 NucSpn=           0           0           0           1           0           0           1           1           1           1
 AtZEff=  -0.0000000  -0.0000000  -0.0000000  -0.0000000  -0.0000000  -0.0000000  -0.0000000  -0.0000000  -0.0000000  -0.0000000
 NQMom=    0.0000000   0.0000000   0.0000000   0.0000000   0.0000000   0.0000000   0.0000000   0.0000000   0.0000000   0.0000000
 NMagM=    0.0000000   0.0000000   0.0000000   2.7928460   0.0000000   0.0000000   2.7928460   2.7928460   2.7928460   2.7928460
 AtZNuc=   6.0000000   6.0000000   6.0000000   1.0000000   8.0000000   6.0000000   1.0000000   1.0000000   1.0000000   1.0000000

  Atom        11          12          13          14
 IAtWgt=           1           1           1          35
 AtmWgt=   1.0078250   1.0078250   1.0078250  34.9688527
 NucSpn=           1           1           1           3
 AtZEff=  -0.0000000  -0.0000000  -0.0000000  -0.0000000
 NQMom=    0.0000000   0.0000000   0.0000000  -8.1650000
 NMagM=    2.7928460   2.7928460   2.7928460   0.8218740
 AtZNuc=   1.0000000   1.0000000   1.0000000  17.0000000
 Leave Link  101 at Mon Oct  7 11:17:48 2024, MaxMem=  2684354560 cpu:               0.6 elap:               0.1
 (Enter /gpfs/fs1/soft/bebop/software/custom-built/gaussian/16-c.02/g16/l103.exe)

 GradGradGradGradGradGradGradGradGradGradGradGradGradGradGradGradGradGrad
 Berny optimization.
 Initialization pass.
                       ----------------------------
                       !    Initial Parameters    !
                       ! (Angstroms and Degrees)  !
 ----------------------                            ----------------------
 !      Name          Value   Derivative information (Atomic Units)     !
 ------------------------------------------------------------------------
 !       R1          1.4971   estimate D2E/DX2                          !
 !       R2          1.4485   estimate D2E/DX2                          !
 !       R3          1.0833   estimate D2E/DX2                          !
 !       R4          1.3668   estimate D2E/DX2                          !
 !       R5          1.4826   estimate D2E/DX2                          !
 !       R6          1.9551   estimate D2E/DX2                          !
 !       R7          1.0871   estimate D2E/DX2                          !
 !       R8          1.0893   estimate D2E/DX2                          !
 !       R9          1.0902   estimate D2E/DX2                          !
 !       R10         1.0885   estimate D2E/DX2                          !
 !       R11         1.0875   estimate D2E/DX2                          !
 !       R12         1.0942   estimate D2E/DX2                          !
 !       A2        123.949    estimate D2E/DX2                          !
 !       A3        116.3381   estimate D2E/DX2                          !
 !       A4         63.8296   estimate D2E/DX2                          !
 !       A5        135.9829   estimate D2E/DX2                          !
 !       A6        105.8099   estimate D2E/DX2                          !
 !       A7        111.2192   estimate D2E/DX2                          !
 !       A8        110.6014   estimate D2E/DX2                          !
 !       A9        109.6875   estimate D2E/DX2                          !
 !       A10       110.0334   estimate D2E/DX2                          !
 !       A11       110.3156   estimate D2E/DX2                          !
 !       A12       111.0413   estimate D2E/DX2                          !
 !       A14        85.8977   estimate D2E/DX2                          !
 !       D3        198.2514   estimate D2E/DX2                          !
 !       D4         99.4011   estimate D2E/DX2                          !
 !       D5        247.1757   estimate D2E/DX2                          !
 !       D6        107.3963   estimate D2E/DX2                          !
 !       D7        339.5515   estimate D2E/DX2                          !
 !       D8        239.1756   estimate D2E/DX2                          !
 !       D9        120.2382   estimate D2E/DX2                          !
 !       D10       149.6366   estimate D2E/DX2                          !
 !       D11       119.8448   estimate D2E/DX2                          !
 !       D12       240.4042   estimate D2E/DX2                          !
 !       D14       175.152    estimate D2E/DX2                          !
 !       R13         1.0      Frozen                                    !
 !       R14         1.2787   Frozen                                    !
 !       A13        90.0      Frozen                                    !
 !       D13       310.8195   Frozen                                    !
 ------------------------------------------------------------------------
 Trust Radius=3.00D-01 FncErr=1.00D-07 GrdErr=1.00D-07 EigMax=2.50D+02 EigMin=1.00D-04
 Number of steps in this run=     49 maximum allowed number of steps=    100.
 GradGradGradGradGradGradGradGradGradGradGradGradGradGradGradGradGradGrad

 Leave Link  103 at Mon Oct  7 11:17:48 2024, MaxMem=  2684354560 cpu:               0.1 elap:               0.0
 (Enter /gpfs/fs1/soft/bebop/software/custom-built/gaussian/16-c.02/g16/l202.exe)
 ---------------------------------------------------------------------------------------------------
                            Z-MATRIX (ANGSTROMS AND DEGREES)
   CD    Cent   Atom    N1       Length/X        N2       Alpha/Y        N3        Beta/Z          J
 ---------------------------------------------------------------------------------------------------
      1      1  C 
      2      2  C        1   1.497100(     1)
      3      3  C        1   1.448500(     2)      2  123.949(    15)
      4      4  H        1   1.083300(     3)      2  116.338(    16)      3  198.251(    28)      0
      5      5  O        3   1.366800(     4)      1   63.830(    17)      2   99.401(    29)      0
      6      6  C        3   1.482600(     5)      1  135.983(    18)      5  247.176(    30)      0
      7      7  H        3   1.955100(     6)      1  105.810(    19)      5  107.396(    31)      0
      8      8  H        2   1.087100(     7)      1  111.219(    20)      3  339.551(    32)      0
      9      9  H        2   1.089300(     8)      1  110.601(    21)      8  239.176(    33)      0
     10     10  H        2   1.090200(     9)      1  109.688(    22)      8  120.238(    34)      0
     11     11  H        6   1.088500(    10)      3  110.033(    23)      1  149.637(    35)      0
     12     12  H        6   1.087500(    11)      3  110.316(    24)     11  119.845(    36)      0
     13     13  H        6   1.094200(    12)      3  111.041(    25)     11  240.404(    37)      0
     14         X        7   1.000000(    13)      3   90.000(    26)      6  310.820(    38)      0
     15     14  Cl       7   1.278660(    14)     14   85.898(    27)      3  175.152(    39)      0
 ---------------------------------------------------------------------------------------------------
                         Z-Matrix orientation:                         
 ---------------------------------------------------------------------
 Center     Atomic      Atomic             Coordinates (Angstroms)
 Number     Number       Type             X           Y           Z
 ---------------------------------------------------------------------
      1          6           0        0.000000    0.000000    0.000000
      2          6           0        0.000000    0.000000    1.497100
      3          6           0        1.201581    0.000000   -0.808922
      4          1           0       -0.922003    0.304056   -0.480625
      5          8           0        0.589625   -1.210209   -0.638492
      6          6           0        2.645633    0.239157   -0.573082
      7          1           0        0.705730    0.848088   -2.499275
      8          1           0        0.949540   -0.354046    1.890562
      9          1           0       -0.795457   -0.637899    1.880386
     10          1           0       -0.174533    1.011524    1.864377
     11          1           0        3.239773   -0.350801   -1.268624
     12          1           0        2.882893    1.290472   -0.718344
     13          1           0        2.930312   -0.047170    0.443899
     14         -1           0        1.155322    1.692349   -2.207574
     15         17           0        0.332235    1.510497   -3.527228
 ---------------------------------------------------------------------
                    Distance matrix (angstroms):
                    1          2          3          4          5
     1  C    0.000000
     2  C    1.497100   0.000000
     3  C    1.448500   2.600295   0.000000
     4  H    1.083300   2.203164   2.170216   0.000000
     5  O    1.489945   2.524483   1.366800   2.145446   0.000000
     6  C    2.717535   3.367822   1.482600   3.569424   2.516368
     7  H    2.731975   4.145880   1.955100   2.649610   2.777153
     8  H    2.145040   1.087100   2.734243   3.091649   2.694191
     9  H    2.139046   1.089300   3.409905   2.545126   2.930996
    10  H    2.128273   1.090200   3.172286   2.560909   3.432840
    11  H    3.496942   4.274158   2.118635   4.286042   2.856385
    12  H    3.239198   3.858054   2.121398   3.937862   3.393944
    13  H    2.964118   3.114191   2.135484   3.977239   2.828965
    14  X    3.012009   4.233607   2.196000   3.037267   3.347667
    15  Cl   3.851405   5.256981   3.229017   3.508618   3.976592
                    6          7          8          9         10
     6  C    0.000000
     7  H    2.800757   0.000000
     8  H    3.049289   4.557986   0.000000
     9  H    4.316229   4.862422   1.767962   0.000000
    10  H    3.806718   4.454553   1.768900   1.762498   0.000000
    11  H    1.088500   3.061570   3.902004   5.126575   4.830023
    12  H    1.087500   2.847360   3.639874   4.899211   4.011996
    13  H    1.094200   3.796382   2.471935   4.036559   3.574725
    14  X    2.646576   1.000000   4.585281   5.093821   4.337376
    15  Cl   3.961704   1.278660   5.762814   5.927021   5.438308
                   11         12         13         14         15
    11  H    0.000000
    12  H    1.767470   0.000000
    13  H    1.766549   1.772665   0.000000
    14  X    3.066110   2.315991   3.634119   0.000000
    15  Cl   4.125470   3.800539   4.994614   1.565895   0.000000
 Stoichiometry    C4H8ClO(2)
 Framework group  C1[X(C4H8ClO)]
 Deg. of freedom    36
 Full point group                 C1      NOp   1
 Largest Abelian subgroup         C1      NOp   1
 Largest concise Abelian subgroup C1      NOp   1
                         Standard orientation:                         
 ---------------------------------------------------------------------
 Center     Atomic      Atomic             Coordinates (Angstroms)
 Number     Number       Type             X           Y           Z
 ---------------------------------------------------------------------
      1          6           0       -1.134746   -0.781506   -0.020047
      2          6           0       -2.519414   -0.882913   -0.580153
      3          6           0       -0.421454    0.467311    0.152645
      4          1           0       -0.548184   -1.692266   -0.020572
      5          8           0       -1.020109   -0.044434    1.269727
      6          6           0       -0.590837    1.864982   -0.312034
      7          1           0        1.477858    0.013456    0.057545
      8          1           0       -3.045110    0.065573   -0.503953
      9          1           0       -3.092652   -1.642451   -0.049987
     10          1           0       -2.470575   -1.171418   -1.630350
     11          1           0       -0.188429    2.555102    0.427315
     12          1           0       -0.064819    2.016849   -1.251660
     13          1           0       -1.648253    2.104515   -0.459579
     14         17           0        2.690573   -0.347126   -0.127591
 ---------------------------------------------------------------------
 Rotational constants (GHZ):           4.0824635           1.1657350           1.0435520
 Leave Link  202 at Mon Oct  7 11:17:48 2024, MaxMem=  2684354560 cpu:               0.1 elap:               0.0
 (Enter /gpfs/fs1/soft/bebop/software/custom-built/gaussian/16-c.02/g16/l301.exe)
 Standard basis: CC-pVTZ (5D, 7F)
 Ernie: Thresh=  0.10000D-02 Tol=  0.10000D-05 Strict=F.
 Ernie:  28 primitive shells out of 254 were deleted.
 There are   334 symmetry adapted cartesian basis functions of A   symmetry.
 There are   296 symmetry adapted basis functions of A   symmetry.
   296 basis functions,   490 primitive gaussians,   334 cartesian basis functions
    29 alpha electrons       28 beta electrons
       nuclear repulsion energy       274.0056204173 Hartrees.
 IExCor=  419 DFT=T Ex+Corr=B2PLYPD3 ExCW=0 ScaHFX=  0.530000
 ScaDFX=  0.470000  0.470000  0.730000  0.730000 ScalE2=  0.270000  0.270000
 IRadAn=      5 IRanWt=     -1 IRanGd=            0 ICorTp=0 IEmpDi=141
 NAtoms=   14 NActive=   14 NUniq=   14 SFac= 1.00D+00 NAtFMM=   60 NAOKFM=F Big=F
 Integral buffers will be    131072 words long.
 Regular integral format.
 Two-electron integral symmetry is turned on.
 R6Disp:  Grimme-D3(BJ) Dispersion energy=       -0.0078932880 Hartrees.
 Nuclear repulsion after empirical dispersion term =      273.9977271293 Hartrees.
 Leave Link  301 at Mon Oct  7 11:17:48 2024, MaxMem=  2684354560 cpu:               0.3 elap:               0.1
 (Enter /gpfs/fs1/soft/bebop/software/custom-built/gaussian/16-c.02/g16/l302.exe)
 NPDir=0 NMtPBC=     1 NCelOv=     1 NCel=       1 NClECP=     1 NCelD=      1
         NCelK=      1 NCelE2=     1 NClLst=     1 CellRange=     0.0.
 One-electron integrals computed using PRISM.
 One-electron integral symmetry used in STVInt
 NBasis=   296 RedAO= T EigKep=  3.12D-04  NBF=   296
 NBsUse=   296 1.00D-06 EigRej= -1.00D+00 NBFU=   296
 Precomputing XC quadrature grid using
 IXCGrd= 4 IRadAn=           5 IRanWt=          -1 IRanGd=           0 AccXCQ= 0.00D+00.
 Generated NRdTot=       0 NPtTot=           0 NUsed=           0 NTot=          32
 NSgBfM=   334   334   334   334   334 MxSgAt=    14 MxSgA2=    14.
 Leave Link  302 at Mon Oct  7 11:17:48 2024, MaxMem=  2684354560 cpu:               1.2 elap:               0.2
 (Enter /gpfs/fs1/soft/bebop/software/custom-built/gaussian/16-c.02/g16/l303.exe)
 DipDrv:  MaxL=1.
 Leave Link  303 at Mon Oct  7 11:17:49 2024, MaxMem=  2684354560 cpu:               0.2 elap:               0.1
 (Enter /gpfs/fs1/soft/bebop/software/custom-built/gaussian/16-c.02/g16/l401.exe)
 ExpMin= 1.03D-01 ExpMax= 4.56D+05 ExpMxC= 1.44D+03 IAcc=3 IRadAn=         5 AccDes= 0.00D+00
 Harris functional with IExCor=  419 and IRadAn=       5 diagonalized for initial guess.
 HarFok:  IExCor=  419 AccDes= 0.00D+00 IRadAn=         5 IDoV= 1 UseB2=F ITyADJ=14
 ICtDFT=  3500011 ScaDFX=  1.000000  1.000000  1.000000  1.000000
 FoFCou: FMM=F IPFlag=           0 FMFlag=      100000 FMFlg1=           0
         NFxFlg=           0 DoJE=T BraDBF=F KetDBF=T FulRan=T
         wScrn=  0.000000 ICntrl=       500 IOpCl=  0 I1Cent=   200000004 NGrid=           0
         NMat0=    1 NMatS0=      1 NMatT0=    0 NMatD0=    1 NMtDS0=    0 NMtDT0=    0
 Petite list used in FoFCou.
 Harris En= -692.643309059175    
 JPrj=0 DoOrth=F DoCkMO=F.
 Initial guess <Sx>= 0.0000 <Sy>= 0.0000 <Sz>= 0.5000 <S**2>= 0.7500 S= 0.5000
 Leave Link  401 at Mon Oct  7 11:17:50 2024, MaxMem=  2684354560 cpu:               5.9 elap:               1.0
 (Enter /gpfs/fs1/soft/bebop/software/custom-built/gaussian/16-c.02/g16/l502.exe)
 Keep R1 and R2 ints in memory in canonical form, NReq=1950973320.
 FoFCou: FMM=F IPFlag=           0 FMFlag=           0 FMFlg1=           0
         NFxFlg=           0 DoJE=F BraDBF=F KetDBF=F FulRan=T
         wScrn=  0.000000 ICntrl=       600 IOpCl=  0 I1Cent=           0 NGrid=           0
         NMat0=    1 NMatS0=  43956 NMatT0=    0 NMatD0=    1 NMtDS0=    0 NMtDT0=    0
 Symmetry not used in FoFCou.
 Two-electron integral symmetry not used.
 UHF open shell SCF:
 Using DIIS extrapolation, IDIIS=  1040.
 NGot=  2684354560 LenX=   751952220 LenY=   751840223
 Requested convergence on RMS density matrix=1.00D-08 within  32 cycles.
 Requested convergence on MAX density matrix=1.00D-06.
 Requested convergence on             energy=1.00D-06.
 No special actions if energy rises.
 Integral accuracy reduced to 1.0D-05 until final iterations.

 Cycle   1  Pass 0  IDiag  1:
 E= -691.801383807203    
 DIIS: error= 2.71D-02 at cycle   1 NSaved=   1.
 NSaved= 1 IEnMin= 1 EnMin= -691.801383807203     IErMin= 1 ErrMin= 2.71D-02
 ErrMax= 2.71D-02  0.00D+00 EMaxC= 1.00D-01 BMatC= 1.06D+00 BMatP= 1.06D+00
 IDIUse=3 WtCom= 7.29D-01 WtEn= 2.71D-01
 Coeff-Com:  0.100D+01
 Coeff-En:   0.100D+01
 Coeff:      0.100D+01
 Gap=     0.426 Goal=   None    Shift=    0.000
 Gap=     0.421 Goal=   None    Shift=    0.000
 GapD=    0.421 DampG=2.000 DampE=0.500 DampFc=1.0000 IDamp=-1.
 RMSDP=1.48D-03 MaxDP=4.68D-02              OVMax= 1.36D-01

 Cycle   2  Pass 0  IDiag  1:
 E= -691.905437733852     Delta-E=       -0.104053926649 Rises=F Damp=F
 DIIS: error= 2.20D-02 at cycle   2 NSaved=   2.
 NSaved= 2 IEnMin= 2 EnMin= -691.905437733852     IErMin= 2 ErrMin= 2.20D-02
 ErrMax= 2.20D-02  0.00D+00 EMaxC= 1.00D-01 BMatC= 3.62D-01 BMatP= 1.06D+00
 IDIUse=3 WtCom= 7.80D-01 WtEn= 2.20D-01
 Coeff-Com:  0.351D+00 0.649D+00
 Coeff-En:   0.235D+00 0.765D+00
 Coeff:      0.325D+00 0.675D+00
 Gap=     0.347 Goal=   None    Shift=    0.000
 Gap=     0.365 Goal=   None    Shift=    0.000
 RMSDP=8.01D-04 MaxDP=3.14D-02 DE=-1.04D-01 OVMax= 6.79D-02

 Cycle   3  Pass 0  IDiag  1:
 E= -691.988611142988     Delta-E=       -0.083173409135 Rises=F Damp=F
 DIIS: error= 3.76D-03 at cycle   3 NSaved=   3.
 NSaved= 3 IEnMin= 3 EnMin= -691.988611142988     IErMin= 3 ErrMin= 3.76D-03
 ErrMax= 3.76D-03  0.00D+00 EMaxC= 1.00D-01 BMatC= 1.79D-02 BMatP= 3.62D-01
 IDIUse=3 WtCom= 9.62D-01 WtEn= 3.76D-02
 Coeff-Com:  0.900D-03 0.173D+00 0.826D+00
 Coeff-En:   0.000D+00 0.000D+00 0.100D+01
 Coeff:      0.866D-03 0.167D+00 0.832D+00
 Gap=     0.343 Goal=   None    Shift=    0.000
 Gap=     0.351 Goal=   None    Shift=    0.000
 RMSDP=1.47D-04 MaxDP=4.78D-03 DE=-8.32D-02 OVMax= 1.30D-02

 Cycle   4  Pass 0  IDiag  1:
 E= -691.992529645084     Delta-E=       -0.003918502097 Rises=F Damp=F
 DIIS: error= 1.11D-03 at cycle   4 NSaved=   4.
 NSaved= 4 IEnMin= 4 EnMin= -691.992529645084     IErMin= 4 ErrMin= 1.11D-03
 ErrMax= 1.11D-03  0.00D+00 EMaxC= 1.00D-01 BMatC= 1.17D-03 BMatP= 1.79D-02
 IDIUse=3 WtCom= 9.89D-01 WtEn= 1.11D-02
 Coeff-Com: -0.618D-02 0.520D-01 0.327D+00 0.627D+00
 Coeff-En:   0.000D+00 0.000D+00 0.000D+00 0.100D+01
 Coeff:     -0.611D-02 0.514D-01 0.324D+00 0.631D+00
 Gap=     0.343 Goal=   None    Shift=    0.000
 Gap=     0.351 Goal=   None    Shift=    0.000
 RMSDP=4.42D-05 MaxDP=2.40D-03 DE=-3.92D-03 OVMax= 1.04D-02

 Cycle   5  Pass 0  IDiag  1:
 E= -691.992760287157     Delta-E=       -0.000230642073 Rises=F Damp=F
 DIIS: error= 3.90D-04 at cycle   5 NSaved=   5.
 NSaved= 5 IEnMin= 5 EnMin= -691.992760287157     IErMin= 5 ErrMin= 3.90D-04
 ErrMax= 3.90D-04  0.00D+00 EMaxC= 1.00D-01 BMatC= 3.44D-04 BMatP= 1.17D-03
 IDIUse=3 WtCom= 9.96D-01 WtEn= 3.90D-03
 Coeff-Com: -0.389D-02-0.270D-02 0.243D-01 0.346D+00 0.636D+00
 Coeff-En:   0.000D+00 0.000D+00 0.000D+00 0.132D-01 0.987D+00
 Coeff:     -0.388D-02-0.269D-02 0.243D-01 0.345D+00 0.637D+00
 Gap=     0.343 Goal=   None    Shift=    0.000
 Gap=     0.351 Goal=   None    Shift=    0.000
 RMSDP=2.20D-05 MaxDP=1.25D-03 DE=-2.31D-04 OVMax= 2.63D-03

 Cycle   6  Pass 0  IDiag  1:
 E= -691.992842398483     Delta-E=       -0.000082111325 Rises=F Damp=F
 DIIS: error= 1.49D-04 at cycle   6 NSaved=   6.
 NSaved= 6 IEnMin= 6 EnMin= -691.992842398483     IErMin= 6 ErrMin= 1.49D-04
 ErrMax= 1.49D-04  0.00D+00 EMaxC= 1.00D-01 BMatC= 2.02D-05 BMatP= 3.44D-04
 IDIUse=3 WtCom= 9.99D-01 WtEn= 1.49D-03
 Coeff-Com:  0.706D-03-0.100D-01-0.592D-01-0.484D-01 0.150D-02 0.112D+01
 Coeff-En:   0.000D+00 0.000D+00 0.000D+00 0.000D+00 0.000D+00 0.100D+01
 Coeff:      0.705D-03-0.100D-01-0.591D-01-0.483D-01 0.150D-02 0.112D+01
 Gap=     0.344 Goal=   None    Shift=    0.000
 Gap=     0.352 Goal=   None    Shift=    0.000
 RMSDP=1.64D-05 MaxDP=9.70D-04 DE=-8.21D-05 OVMax= 4.00D-03

 Cycle   7  Pass 0  IDiag  1:
 E= -691.992862526393     Delta-E=       -0.000020127910 Rises=F Damp=F
 DIIS: error= 6.86D-05 at cycle   7 NSaved=   7.
 NSaved= 7 IEnMin= 7 EnMin= -691.992862526393     IErMin= 7 ErrMin= 6.86D-05
 ErrMax= 6.86D-05  0.00D+00 EMaxC= 1.00D-01 BMatC= 4.71D-06 BMatP= 2.02D-05
 IDIUse=1 WtCom= 1.00D+00 WtEn= 0.00D+00
 Coeff-Com:  0.749D-03 0.594D-05-0.767D-02-0.468D-01-0.125D+00 0.697D-01
 Coeff-Com:  0.111D+01
 Coeff:      0.749D-03 0.594D-05-0.767D-02-0.468D-01-0.125D+00 0.697D-01
 Coeff:      0.111D+01
 Gap=     0.344 Goal=   None    Shift=    0.000
 Gap=     0.352 Goal=   None    Shift=    0.000
 RMSDP=7.74D-06 MaxDP=3.68D-04 DE=-2.01D-05 OVMax= 2.22D-03

 Initial convergence to 1.0D-05 achieved.  Increase integral accuracy.
 Cycle   8  Pass 1  IDiag  1:
 E= -691.992864815081     Delta-E=       -0.000002288688 Rises=F Damp=F
 DIIS: error= 3.08D-05 at cycle   1 NSaved=   1.
 NSaved= 1 IEnMin= 1 EnMin= -691.992864815081     IErMin= 1 ErrMin= 3.08D-05
 ErrMax= 3.08D-05  0.00D+00 EMaxC= 1.00D-01 BMatC= 1.13D-06 BMatP= 1.13D-06
 IDIUse=1 WtCom= 1.00D+00 WtEn= 0.00D+00
 Coeff-Com:  0.100D+01
 Coeff:      0.100D+01
 Gap=     0.344 Goal=   None    Shift=    0.000
 Gap=     0.352 Goal=   None    Shift=    0.000
 RMSDP=7.74D-06 MaxDP=3.68D-04 DE=-2.29D-06 OVMax= 4.81D-04

 Cycle   9  Pass 1  IDiag  1:
 E= -691.992865346148     Delta-E=       -0.000000531067 Rises=F Damp=F
 DIIS: error= 2.69D-05 at cycle   2 NSaved=   2.
 NSaved= 2 IEnMin= 2 EnMin= -691.992865346148     IErMin= 2 ErrMin= 2.69D-05
 ErrMax= 2.69D-05  0.00D+00 EMaxC= 1.00D-01 BMatC= 6.54D-07 BMatP= 1.13D-06
 IDIUse=1 WtCom= 1.00D+00 WtEn= 0.00D+00
 Coeff-Com:  0.387D+00 0.613D+00
 Coeff:      0.387D+00 0.613D+00
 Gap=     0.344 Goal=   None    Shift=    0.000
 Gap=     0.352 Goal=   None    Shift=    0.000
 RMSDP=1.13D-06 MaxDP=5.41D-05 DE=-5.31D-07 OVMax= 2.46D-04

 Cycle  10  Pass 1  IDiag  1:
 E= -691.992865581818     Delta-E=       -0.000000235670 Rises=F Damp=F
 DIIS: error= 1.36D-05 at cycle   3 NSaved=   3.
 NSaved= 3 IEnMin= 3 EnMin= -691.992865581818     IErMin= 3 ErrMin= 1.36D-05
 ErrMax= 1.36D-05  0.00D+00 EMaxC= 1.00D-01 BMatC= 1.49D-07 BMatP= 6.54D-07
 IDIUse=1 WtCom= 1.00D+00 WtEn= 0.00D+00
 Coeff-Com: -0.624D+00-0.205D+00 0.183D+01
 Coeff:     -0.624D+00-0.205D+00 0.183D+01
 Gap=     0.344 Goal=   None    Shift=    0.000
 Gap=     0.352 Goal=   None    Shift=    0.000
 RMSDP=1.92D-06 MaxDP=1.11D-04 DE=-2.36D-07 OVMax= 5.17D-04

 Cycle  11  Pass 1  IDiag  1:
 E= -691.992865755875     Delta-E=       -0.000000174056 Rises=F Damp=F
 DIIS: error= 4.11D-06 at cycle   4 NSaved=   4.
 NSaved= 4 IEnMin= 4 EnMin= -691.992865755875     IErMin= 4 ErrMin= 4.11D-06
 ErrMax= 4.11D-06  0.00D+00 EMaxC= 1.00D-01 BMatC= 1.28D-08 BMatP= 1.49D-07
 IDIUse=1 WtCom= 1.00D+00 WtEn= 0.00D+00
 Coeff-Com: -0.264D+00-0.109D+00 0.708D+00 0.665D+00
 Coeff:     -0.264D+00-0.109D+00 0.708D+00 0.665D+00
 Gap=     0.344 Goal=   None    Shift=    0.000
 Gap=     0.352 Goal=   None    Shift=    0.000
 RMSDP=2.06D-07 MaxDP=1.54D-05 DE=-1.74D-07 OVMax= 6.26D-05

 Cycle  12  Pass 1  IDiag  1:
 E= -691.992865760322     Delta-E=       -0.000000004447 Rises=F Damp=F
 DIIS: error= 1.33D-06 at cycle   5 NSaved=   5.
 NSaved= 5 IEnMin= 5 EnMin= -691.992865760322     IErMin= 5 ErrMin= 1.33D-06
 ErrMax= 1.33D-06  0.00D+00 EMaxC= 1.00D-01 BMatC= 3.34D-09 BMatP= 1.28D-08
 IDIUse=1 WtCom= 1.00D+00 WtEn= 0.00D+00
 Coeff-Com:  0.114D-01-0.819D-02-0.756D-01 0.304D+00 0.768D+00
 Coeff:      0.114D-01-0.819D-02-0.756D-01 0.304D+00 0.768D+00
 Gap=     0.344 Goal=   None    Shift=    0.000
 Gap=     0.352 Goal=   None    Shift=    0.000
 RMSDP=1.12D-07 MaxDP=5.05D-06 DE=-4.45D-09 OVMax= 1.49D-05

 Cycle  13  Pass 1  IDiag  1:
 E= -691.992865761354     Delta-E=       -0.000000001032 Rises=F Damp=F
 DIIS: error= 3.68D-07 at cycle   6 NSaved=   6.
 NSaved= 6 IEnMin= 6 EnMin= -691.992865761354     IErMin= 6 ErrMin= 3.68D-07
 ErrMax= 3.68D-07  0.00D+00 EMaxC= 1.00D-01 BMatC= 3.88D-10 BMatP= 3.34D-09
 IDIUse=1 WtCom= 1.00D+00 WtEn= 0.00D+00
 Coeff-Com:  0.576D-01 0.187D-01-0.170D+00-0.142D-01 0.290D+00 0.818D+00
 Coeff:      0.576D-01 0.187D-01-0.170D+00-0.142D-01 0.290D+00 0.818D+00
 Gap=     0.344 Goal=   None    Shift=    0.000
 Gap=     0.352 Goal=   None    Shift=    0.000
 RMSDP=4.27D-08 MaxDP=2.09D-06 DE=-1.03D-09 OVMax= 5.50D-06

 Cycle  14  Pass 1  IDiag  1:
 E= -691.992865761498     Delta-E=       -0.000000000144 Rises=F Damp=F
 DIIS: error= 1.11D-07 at cycle   7 NSaved=   7.
 NSaved= 7 IEnMin= 7 EnMin= -691.992865761498     IErMin= 7 ErrMin= 1.11D-07
 ErrMax= 1.11D-07  0.00D+00 EMaxC= 1.00D-01 BMatC= 2.59D-11 BMatP= 3.88D-10
 IDIUse=1 WtCom= 1.00D+00 WtEn= 0.00D+00
 Coeff-Com:  0.651D-02 0.282D-02-0.150D-01-0.312D-01-0.338D-01 0.972D-01
 Coeff-Com:  0.973D+00
 Coeff:      0.651D-02 0.282D-02-0.150D-01-0.312D-01-0.338D-01 0.972D-01
 Coeff:      0.973D+00
 Gap=     0.344 Goal=   None    Shift=    0.000
 Gap=     0.352 Goal=   None    Shift=    0.000
 RMSDP=1.24D-08 MaxDP=5.33D-07 DE=-1.44D-10 OVMax= 1.63D-06

 Cycle  15  Pass 1  IDiag  1:
 E= -691.992865761516     Delta-E=       -0.000000000018 Rises=F Damp=F
 DIIS: error= 5.57D-08 at cycle   8 NSaved=   8.
 NSaved= 8 IEnMin= 8 EnMin= -691.992865761516     IErMin= 8 ErrMin= 5.57D-08
 ErrMax= 5.57D-08  0.00D+00 EMaxC= 1.00D-01 BMatC= 5.71D-12 BMatP= 2.59D-11
 IDIUse=1 WtCom= 1.00D+00 WtEn= 0.00D+00
 Coeff-Com: -0.957D-02-0.333D-02 0.290D-01-0.197D-02-0.452D-01-0.140D+00
 Coeff-Com:  0.381D-01 0.113D+01
 Coeff:     -0.957D-02-0.333D-02 0.290D-01-0.197D-02-0.452D-01-0.140D+00
 Coeff:      0.381D-01 0.113D+01
 Gap=     0.344 Goal=   None    Shift=    0.000
 Gap=     0.352 Goal=   None    Shift=    0.000
 RMSDP=7.37D-09 MaxDP=3.53D-07 DE=-1.80D-11 OVMax= 1.25D-06

 SCF Done:  E(UB2PLYPD3) =  -691.992865762     A.U. after   15 cycles
            NFock= 15  Conv=0.74D-08     -V/T= 2.0026
 <Sx>= 0.0000 <Sy>= 0.0000 <Sz>= 0.5000 <S**2>= 0.7560 S= 0.5030
 <L.S>=  0.00000000000    
 KE= 6.902215168627D+02 PE=-2.183248903483D+03 EE= 5.270367937300D+02
 Annihilation of the first spin contaminant:
 S**2 before annihilation     0.7560,   after     0.7500
 Leave Link  502 at Mon Oct  7 11:18:56 2024, MaxMem=  2684354560 cpu:             188.1 elap:              66.1
 (Enter /gpfs/fs1/soft/bebop/software/custom-built/gaussian/16-c.02/g16/l508.exe)
 QCSCF skips out because SCF is already converged.
 Leave Link  508 at Mon Oct  7 11:18:56 2024, MaxMem=  2684354560 cpu:               0.0 elap:               0.0
 (Enter /gpfs/fs1/soft/bebop/software/custom-built/gaussian/16-c.02/g16/l801.exe)
 DoSCS=T DFT=T ScalE2(SS,OS)=  0.270000  0.270000
 ExpMin= 1.03D-01 ExpMax= 4.56D+05 ExpMxC= 1.44D+03 IAcc=3 IRadAn=         5 AccDes= 0.00D+00
 HarFok:  IExCor=  205 AccDes= 0.00D+00 IRadAn=         5 IDoV=-2 UseB2=F ITyADJ=14
 ICtDFT= 12500011 ScaDFX=  1.000000  1.000000  1.000000  1.000000
 Largest valence mixing into a core orbital is  1.83D-04
 Largest core mixing into a valence orbital is  6.45D-05
 Largest valence mixing into a core orbital is  1.84D-04
 Largest core mixing into a valence orbital is  6.56D-05
 Range of M.O.s used for correlation:    11   296
 NBasis=   296 NAE=    29 NBE=    28 NFC=    10 NFV=     0
 NROrb=    286 NOA=    19 NOB=    18 NVA=   267 NVB=   268

 **** Warning!!: The largest alpha MO coefficient is  0.10091776D+02


 **** Warning!!: The largest beta MO coefficient is  0.10622434D+02

 Leave Link  801 at Mon Oct  7 11:18:56 2024, MaxMem=  2684354560 cpu:               0.6 elap:               0.1
 (Enter /gpfs/fs1/soft/bebop/software/custom-built/gaussian/16-c.02/g16/l906.exe)
 DoSCS=T DFT=T ScalE2(SS,OS)=  0.270000  0.270000
 Frozen-core derivative calculation, NFC=  10 NFV=   0.
 FulOut=F Deriv=T AODrv=T NAtomX=    14
   MMem=          23  MDisk=          19 MDiskD=          19
  W3Min=     5734112 MinDsk=     4243203 NBas6D=         334
 NBas2D=       56620    NTT=       55945    LW2=     3500000
    MDV=  2682946405 MDiskM=       40133 NBas2p=       53999
 Fully direct method using O(ONN) memory.
 IMap=   1   2   3   4   5   6   7   8   9  10  11  12  13  14  15  16  17  18  19  20
 IMap=  21  22  23  24  25  26  27  28  29
 JobTyp=2 Pass  1:  I=  11 to  29 NPSUse=  6 ParTrn=T ParDer=T DoDerP=T.
 IMap=   1   2   3   4   5   6   7   8   9  10  11  12  13  14  15  16  17  18  19  20
 IMap=  21  22  23  24  25  26  27  28
 JobTyp=3 Pass  1:  I=  11 to  28 NPSUse=  6 ParTrn=T ParDer=T DoDerP=T.
 Spin components of T(2) and E(2):
     alpha-alpha T2 =       0.6767242034D-01 E2=     -0.4541927219D-01
     alpha-beta  T2 =       0.3816899489D+00 E2=     -0.2731756408D+00
     beta-beta   T2 =       0.6754486032D-01 E2=     -0.4303773639D-01
 The integrals were generated   2 times.
 (S**2,0)=  0.75598D+00           (S**2,1)=  0.74694D+00
 Scaling Projection term by:   0.270000
 E(PUHF)=      -0.69199516543D+03        E(PMP2)=      -0.69235465149D+03
 E2(B2PLYPD3) =    -0.3616326493D+00 E(B2PLYPD3) =    -0.69235449841086D+03
 Leave Link  906 at Mon Oct  7 11:21:26 2024, MaxMem=  2684354560 cpu:             900.3 elap:             150.6
 (Enter /gpfs/fs1/soft/bebop/software/custom-built/gaussian/16-c.02/g16/l1002.exe)
 Minotr:  UHF open shell wavefunction.
          Computing MP2/KS-MP2 derivatives.
          Using Z-Vector for PSCF gradient.
          Skipping F1 and S1 gradient terms here.
          IDoAtm=11111111111111
          Frozen-core window.
          Direct CPHF calculation.
          Differentiating once with respect to electric field.
                with respect to dipole field.
          Differentiating once with respect to nuclear coordinates.
          Requested convergence is 1.0D-10 RMS, and 1.0D-09 maximum.
          NewPWx=F KeepS1=T KeepF1=T KeepIn=T MapXYZ=F SortEE=F KeepMc=T.
 Keep R1 and R2 ints in memory in canonical form, NReq=1950975864.
 FoFCou: FMM=F IPFlag=           0 FMFlag=           0 FMFlg1=           0
         NFxFlg=           0 DoJE=F BraDBF=F KetDBF=F FulRan=T
         wScrn=  0.000000 ICntrl=       600 IOpCl=  0 I1Cent=           0 NGrid=           0
         NMat0=    1 NMatS0=  43956 NMatT0=    0 NMatD0=    1 NMtDS0=    0 NMtDT0=    0
 Symmetry not used in FoFCou.
 Two-electron integral symmetry not used.
          MDV=    2684354560 using IRadAn=       5.
          Solving linear equations separately, MaxMat=       0.
          There are     1 degrees of freedom in the 1st order CPHF.  IDoFFX=0 NUNeed=     1.
 LinEq1:  Iter=  0 NonCon=     1 RMS=7.08D-04 Max=4.02D-02 NDo=     1
 AX will form     1 AO Fock derivatives at one time.
 LinEq1:  Iter=  1 NonCon=     1 RMS=3.08D-04 Max=4.98D-03 NDo=     1
 LinEq1:  Iter=  2 NonCon=     1 RMS=1.79D-04 Max=1.13D-02 NDo=     1
 LinEq1:  Iter=  3 NonCon=     1 RMS=1.01D-04 Max=2.54D-03 NDo=     1
 LinEq1:  Iter=  4 NonCon=     1 RMS=3.72D-05 Max=1.34D-03 NDo=     1
 LinEq1:  Iter=  5 NonCon=     1 RMS=1.25D-05 Max=3.18D-04 NDo=     1
 LinEq1:  Iter=  6 NonCon=     1 RMS=4.45D-06 Max=8.19D-05 NDo=     1
 LinEq1:  Iter=  7 NonCon=     1 RMS=1.64D-06 Max=4.47D-05 NDo=     1
 LinEq1:  Iter=  8 NonCon=     1 RMS=8.60D-07 Max=1.85D-05 NDo=     1
 LinEq1:  Iter=  9 NonCon=     1 RMS=3.04D-07 Max=6.85D-06 NDo=     1
 LinEq1:  Iter= 10 NonCon=     1 RMS=1.29D-07 Max=2.40D-06 NDo=     1
 LinEq1:  Iter= 11 NonCon=     1 RMS=5.21D-08 Max=1.50D-06 NDo=     1
 LinEq1:  Iter= 12 NonCon=     1 RMS=2.13D-08 Max=5.08D-07 NDo=     1
 LinEq1:  Iter= 13 NonCon=     1 RMS=8.55D-09 Max=1.73D-07 NDo=     1
 LinEq1:  Iter= 14 NonCon=     1 RMS=2.82D-09 Max=6.60D-08 NDo=     1
 LinEq1:  Iter= 15 NonCon=     1 RMS=1.16D-09 Max=1.78D-08 NDo=     1
 LinEq1:  Iter= 16 NonCon=     1 RMS=3.50D-10 Max=6.34D-09 NDo=     1
 LinEq1:  Iter= 17 NonCon=     1 RMS=1.05D-10 Max=2.56D-09 NDo=     1
 LinEq1:  Iter= 18 NonCon=     0 RMS=4.12D-11 Max=6.17D-10 NDo=     1
 Linear equations converged to 1.000D-10 1.000D-09 after    18 iterations.
 End of Minotr F.D. properties file   721 does not exist.
 End of Minotr F.D. properties file   722 does not exist.
 End of Minotr F.D. properties file   788 does not exist.
 Leave Link 1002 at Mon Oct  7 11:23:17 2024, MaxMem=  2684354560 cpu:             394.0 elap:             110.1
 (Enter /gpfs/fs1/soft/bebop/software/custom-built/gaussian/16-c.02/g16/l601.exe)
 Copying SCF densities to generalized density rwf, IOpCl= 1 IROHF=0.

 **********************************************************************

            Population analysis using the SCF Density.

 **********************************************************************

 Orbital symmetries:
 Alpha Orbitals:
       Occupied  (A) (A) (A) (A) (A) (A) (A) (A) (A) (A) (A) (A)
                 (A) (A) (A) (A) (A) (A) (A) (A) (A) (A) (A) (A)
                 (A) (A) (A) (A) (A)
       Virtual   (A) (A) (A) (A) (A) (A) (A) (A) (A) (A) (A) (A)
                 (A) (A) (A) (A) (A) (A) (A) (A) (A) (A) (A) (A)
                 (A) (A) (A) (A) (A) (A) (A) (A) (A) (A) (A) (A)
                 (A) (A) (A) (A) (A) (A) (A) (A) (A) (A) (A) (A)
                 (A) (A) (A) (A) (A) (A) (A) (A) (A) (A) (A) (A)
                 (A) (A) (A) (A) (A) (A) (A) (A) (A) (A) (A) (A)
                 (A) (A) (A) (A) (A) (A) (A) (A) (A) (A) (A) (A)
                 (A) (A) (A) (A) (A) (A) (A) (A) (A) (A) (A) (A)
                 (A) (A) (A) (A) (A) (A) (A) (A) (A) (A) (A) (A)
                 (A) (A) (A) (A) (A) (A) (A) (A) (A) (A) (A) (A)
                 (A) (A) (A) (A) (A) (A) (A) (A) (A) (A) (A) (A)
                 (A) (A) (A) (A) (A) (A) (A) (A) (A) (A) (A) (A)
                 (A) (A) (A) (A) (A) (A) (A) (A) (A) (A) (A) (A)
                 (A) (A) (A) (A) (A) (A) (A) (A) (A) (A) (A) (A)
                 (A) (A) (A) (A) (A) (A) (A) (A) (A) (A) (A) (A)
                 (A) (A) (A) (A) (A) (A) (A) (A) (A) (A) (A) (A)
                 (A) (A) (A) (A) (A) (A) (A) (A) (A) (A) (A) (A)
                 (A) (A) (A) (A) (A) (A) (A) (A) (A) (A) (A) (A)
                 (A) (A) (A) (A) (A) (A) (A) (A) (A) (A) (A) (A)
                 (A) (A) (A) (A) (A) (A) (A) (A) (A) (A) (A) (A)
                 (A) (A) (A) (A) (A) (A) (A) (A) (A) (A) (A) (A)
                 (A) (A) (A) (A) (A) (A) (A) (A) (A) (A) (A) (A)
                 (A) (A) (A)
 Beta  Orbitals:
       Occupied  (A) (A) (A) (A) (A) (A) (A) (A) (A) (A) (A) (A)
                 (A) (A) (A) (A) (A) (A) (A) (A) (A) (A) (A) (A)
                 (A) (A) (A) (A)
       Virtual   (A) (A) (A) (A) (A) (A) (A) (A) (A) (A) (A) (A)
                 (A) (A) (A) (A) (A) (A) (A) (A) (A) (A) (A) (A)
                 (A) (A) (A) (A) (A) (A) (A) (A) (A) (A) (A) (A)
                 (A) (A) (A) (A) (A) (A) (A) (A) (A) (A) (A) (A)
                 (A) (A) (A) (A) (A) (A) (A) (A) (A) (A) (A) (A)
                 (A) (A) (A) (A) (A) (A) (A) (A) (A) (A) (A) (A)
                 (A) (A) (A) (A) (A) (A) (A) (A) (A) (A) (A) (A)
                 (A) (A) (A) (A) (A) (A) (A) (A) (A) (A) (A) (A)
                 (A) (A) (A) (A) (A) (A) (A) (A) (A) (A) (A) (A)
                 (A) (A) (A) (A) (A) (A) (A) (A) (A) (A) (A) (A)
                 (A) (A) (A) (A) (A) (A) (A) (A) (A) (A) (A) (A)
                 (A) (A) (A) (A) (A) (A) (A) (A) (A) (A) (A) (A)
                 (A) (A) (A) (A) (A) (A) (A) (A) (A) (A) (A) (A)
                 (A) (A) (A) (A) (A) (A) (A) (A) (A) (A) (A) (A)
                 (A) (A) (A) (A) (A) (A) (A) (A) (A) (A) (A) (A)
                 (A) (A) (A) (A) (A) (A) (A) (A) (A) (A) (A) (A)
                 (A) (A) (A) (A) (A) (A) (A) (A) (A) (A) (A) (A)
                 (A) (A) (A) (A) (A) (A) (A) (A) (A) (A) (A) (A)
                 (A) (A) (A) (A) (A) (A) (A) (A) (A) (A) (A) (A)
                 (A) (A) (A) (A) (A) (A) (A) (A) (A) (A) (A) (A)
                 (A) (A) (A) (A) (A) (A) (A) (A) (A) (A) (A) (A)
                 (A) (A) (A) (A) (A) (A) (A) (A) (A) (A) (A) (A)
                 (A) (A) (A) (A)
 The electronic state is 2-A.
 Alpha  occ. eigenvalues -- -102.91293 -19.77134 -10.69853 -10.69613 -10.63523
 Alpha  occ. eigenvalues --  -10.62875  -9.90368  -7.54439  -7.53790  -7.53788
 Alpha  occ. eigenvalues --   -1.25002  -0.94225  -0.88785  -0.87681  -0.75315
 Alpha  occ. eigenvalues --   -0.66773  -0.60438  -0.55288  -0.53345  -0.51324
 Alpha  occ. eigenvalues --   -0.50781  -0.49177  -0.47646  -0.44977  -0.41201
 Alpha  occ. eigenvalues --   -0.38487  -0.37487  -0.37390  -0.27564
 Alpha virt. eigenvalues --    0.06859   0.09875   0.10463   0.12781   0.13336
 Alpha virt. eigenvalues --    0.14203   0.15148   0.15392   0.18434   0.19629
 Alpha virt. eigenvalues --    0.20675   0.22524   0.25383   0.27362   0.27954
 Alpha virt. eigenvalues --    0.31789   0.34202   0.34704   0.37493   0.38812
 Alpha virt. eigenvalues --    0.40140   0.41070   0.41828   0.43250   0.44047
 Alpha virt. eigenvalues --    0.45438   0.48568   0.49541   0.50297   0.50805
 Alpha virt. eigenvalues --    0.51603   0.52321   0.53117   0.53957   0.54526
 Alpha virt. eigenvalues --    0.55865   0.55967   0.57236   0.59165   0.60574
 Alpha virt. eigenvalues --    0.62867   0.63521   0.65385   0.68981   0.72870
 Alpha virt. eigenvalues --    0.75595   0.76156   0.79083   0.82978   0.83686
 Alpha virt. eigenvalues --    0.88264   0.88968   0.90807   0.91029   0.95724
 Alpha virt. eigenvalues --    0.96563   0.99118   1.02895   1.04060   1.05911
 Alpha virt. eigenvalues --    1.06611   1.08067   1.08509   1.10847   1.12560
 Alpha virt. eigenvalues --    1.14225   1.17145   1.20142   1.20845   1.22298
 Alpha virt. eigenvalues --    1.25557   1.28129   1.30169   1.31077   1.33013
 Alpha virt. eigenvalues --    1.33553   1.34681   1.38411   1.39827   1.40493
 Alpha virt. eigenvalues --    1.40894   1.42015   1.45185   1.47774   1.51617
 Alpha virt. eigenvalues --    1.52709   1.56283   1.59877   1.60914   1.64057
 Alpha virt. eigenvalues --    1.66875   1.78806   1.79505   1.86637   1.89270
 Alpha virt. eigenvalues --    2.00440   2.02053   2.02658   2.03819   2.04763
 Alpha virt. eigenvalues --    2.05070   2.05763   2.12134   2.17013   2.17370
 Alpha virt. eigenvalues --    2.21471   2.23368   2.23377   2.24840   2.26354
 Alpha virt. eigenvalues --    2.33472   2.34055   2.36540   2.37245   2.38686
 Alpha virt. eigenvalues --    2.40099   2.42853   2.48172   2.48970   2.51259
 Alpha virt. eigenvalues --    2.52599   2.57439   2.59147   2.62253   2.66381
 Alpha virt. eigenvalues --    2.69872   2.72403   2.74552   2.77747   2.80223
 Alpha virt. eigenvalues --    2.81801   2.84714   2.84764   2.87254   2.89170
 Alpha virt. eigenvalues --    2.90469   2.92878   2.95988   2.96840   2.99013
 Alpha virt. eigenvalues --    2.99777   3.03105   3.04434   3.04923   3.08409
 Alpha virt. eigenvalues --    3.10477   3.11731   3.14731   3.15088   3.17314
 Alpha virt. eigenvalues --    3.20716   3.21044   3.23147   3.24958   3.27328
 Alpha virt. eigenvalues --    3.31034   3.31529   3.36249   3.37054   3.39699
 Alpha virt. eigenvalues --    3.41536   3.41849   3.44349   3.45241   3.48052
 Alpha virt. eigenvalues --    3.49355   3.52453   3.53195   3.55222   3.56767
 Alpha virt. eigenvalues --    3.57912   3.59351   3.60261   3.62214   3.63692
 Alpha virt. eigenvalues --    3.68711   3.69555   3.71503   3.76973   3.78412
 Alpha virt. eigenvalues --    3.81426   3.86756   3.89016   3.89333   3.92329
 Alpha virt. eigenvalues --    3.93906   3.95363   3.96554   3.96966   4.01255
 Alpha virt. eigenvalues --    4.02165   4.05345   4.06226   4.11578   4.14028
 Alpha virt. eigenvalues --    4.15250   4.17008   4.19689   4.21360   4.22475
 Alpha virt. eigenvalues --    4.24620   4.25160   4.26586   4.29297   4.32475
 Alpha virt. eigenvalues --    4.36626   4.37973   4.39764   4.42153   4.42491
 Alpha virt. eigenvalues --    4.44244   4.48495   4.52747   4.55610   4.59726
 Alpha virt. eigenvalues --    4.64518   4.67337   4.71323   4.80863   4.86985
 Alpha virt. eigenvalues --    4.91757   4.93795   4.96936   4.97889   5.02728
 Alpha virt. eigenvalues --    5.04644   5.10605   5.13195   5.18273   5.21885
 Alpha virt. eigenvalues --    5.25689   5.26304   5.29528   5.30184   5.32893
 Alpha virt. eigenvalues --    5.35275   5.40334   5.44346   5.45501   5.48853
 Alpha virt. eigenvalues --    5.49264   5.51248   5.53408   5.54793   5.67774
 Alpha virt. eigenvalues --    5.71459   5.85155   5.91512   5.94290   5.96853
 Alpha virt. eigenvalues --    6.03015   6.06233   6.09168   6.13857   6.25004
 Alpha virt. eigenvalues --    6.48333   6.54275   6.82521   6.92478   7.05721
 Alpha virt. eigenvalues --    7.16879   7.41760   9.73952  11.10839  12.46385
 Alpha virt. eigenvalues --   13.57401  14.15379
  Beta  occ. eigenvalues -- -102.91210 -19.76525 -10.69627 -10.68261 -10.63485
  Beta  occ. eigenvalues --  -10.62868  -9.90285  -7.54140  -7.53743  -7.53741
  Beta  occ. eigenvalues --   -1.23594  -0.93596  -0.88262  -0.86587  -0.74131
  Beta  occ. eigenvalues --   -0.65316  -0.57194  -0.54265  -0.52310  -0.50847
  Beta  occ. eigenvalues --   -0.50076  -0.48632  -0.47237  -0.44354  -0.38007
  Beta  occ. eigenvalues --   -0.37734  -0.37335  -0.37069
  Beta virt. eigenvalues --   -0.01832   0.07040   0.10001   0.10814   0.13115
  Beta virt. eigenvalues --    0.13404   0.14388   0.15489   0.16859   0.19252
  Beta virt. eigenvalues --    0.20867   0.21046   0.23085   0.25552   0.27711
  Beta virt. eigenvalues --    0.28204   0.32066   0.34445   0.35092   0.38456
  Beta virt. eigenvalues --    0.39221   0.41082   0.41717   0.42395   0.43450
  Beta virt. eigenvalues --    0.44442   0.46256   0.48831   0.50366   0.50407
  Beta virt. eigenvalues --    0.50985   0.51703   0.52700   0.53298   0.54139
  Beta virt. eigenvalues --    0.55316   0.56023   0.56136   0.57440   0.59440
  Beta virt. eigenvalues --    0.61013   0.63363   0.63950   0.66771   0.69266
  Beta virt. eigenvalues --    0.73248   0.76245   0.77542   0.79542   0.83714
  Beta virt. eigenvalues --    0.84103   0.88907   0.89363   0.91303   0.91335
  Beta virt. eigenvalues --    0.96233   0.96764   0.99319   1.03183   1.04226
  Beta virt. eigenvalues --    1.06329   1.06784   1.08421   1.08790   1.11263
  Beta virt. eigenvalues --    1.13143   1.14492   1.17532   1.20495   1.21209
  Beta virt. eigenvalues --    1.22765   1.25964   1.28584   1.30780   1.31323
  Beta virt. eigenvalues --    1.33287   1.34956   1.35278   1.38623   1.40084
  Beta virt. eigenvalues --    1.40641   1.41322   1.42369   1.45579   1.48393
  Beta virt. eigenvalues --    1.51862   1.52977   1.56600   1.60113   1.61394
  Beta virt. eigenvalues --    1.64806   1.67319   1.79494   1.80435   1.87613
  Beta virt. eigenvalues --    1.89951   2.01475   2.02561   2.03196   2.04324
  Beta virt. eigenvalues --    2.05065   2.05342   2.05934   2.12791   2.17257
  Beta virt. eigenvalues --    2.17616   2.22092   2.23387   2.23394   2.25467
  Beta virt. eigenvalues --    2.26713   2.33873   2.34299   2.36777   2.37502
  Beta virt. eigenvalues --    2.39477   2.40693   2.43542   2.48618   2.49451
  Beta virt. eigenvalues --    2.51548   2.53040   2.58207   2.60062   2.62789
  Beta virt. eigenvalues --    2.66872   2.70185   2.73136   2.75186   2.77969
  Beta virt. eigenvalues --    2.81297   2.82450   2.85256   2.85326   2.87578
  Beta virt. eigenvalues --    2.89439   2.90660   2.93285   2.96715   2.96957
  Beta virt. eigenvalues --    2.99852   3.00260   3.03850   3.04852   3.05355
  Beta virt. eigenvalues --    3.08990   3.11066   3.12144   3.15177   3.15750
  Beta virt. eigenvalues --    3.17933   3.21207   3.21316   3.23478   3.25586
  Beta virt. eigenvalues --    3.27712   3.31860   3.32572   3.36877   3.37552
  Beta virt. eigenvalues --    3.40341   3.42157   3.42798   3.44931   3.45671
  Beta virt. eigenvalues --    3.48193   3.49701   3.52765   3.53500   3.55705
  Beta virt. eigenvalues --    3.57150   3.58106   3.60135   3.61481   3.62971
  Beta virt. eigenvalues --    3.64543   3.69221   3.69826   3.71850   3.77735
  Beta virt. eigenvalues --    3.78782   3.81672   3.86915   3.89068   3.89514
  Beta virt. eigenvalues --    3.92371   3.94249   3.95508   3.96770   3.97257
  Beta virt. eigenvalues --    4.01720   4.02357   4.05727   4.06370   4.11883
  Beta virt. eigenvalues --    4.14418   4.15626   4.17228   4.19851   4.21828
  Beta virt. eigenvalues --    4.22739   4.25024   4.25648   4.26999   4.29470
  Beta virt. eigenvalues --    4.32818   4.37062   4.38386   4.40083   4.42668
  Beta virt. eigenvalues --    4.42819   4.44563   4.48836   4.53079   4.56042
  Beta virt. eigenvalues --    4.60072   4.64897   4.67689   4.72091   4.81238
  Beta virt. eigenvalues --    4.87289   4.91938   4.94143   4.97382   4.97967
  Beta virt. eigenvalues --    5.03374   5.04903   5.10911   5.13575   5.18419
  Beta virt. eigenvalues --    5.22129   5.25968   5.26502   5.29730   5.30414
  Beta virt. eigenvalues --    5.33278   5.35658   5.40546   5.44570   5.45690
  Beta virt. eigenvalues --    5.49297   5.49521   5.51416   5.54018   5.55002
  Beta virt. eigenvalues --    5.68489   5.71582   5.85653   5.91867   5.94696
  Beta virt. eigenvalues --    5.97055   6.03573   6.06455   6.09871   6.14384
  Beta virt. eigenvalues --    6.25585   6.48458   6.54813   6.83872   6.93981
  Beta virt. eigenvalues --    7.07143   7.17381   7.42074   9.74848  11.11599
  Beta virt. eigenvalues --   12.46791  13.57500  14.15500
          Condensed to atoms (all electrons):
               1          2          3          4          5          6
     1  C    4.835139   0.353314   0.353707   0.420077   0.157975  -0.028860
     2  C    0.353314   4.810546  -0.051582  -0.037370  -0.015695  -0.001946
     3  C    0.353707  -0.051582   5.155907  -0.032687   0.243294   0.329555
     4  H    0.420077  -0.037370  -0.032687   0.523099  -0.017011   0.001859
     5  O    0.157975  -0.015695   0.243294  -0.017011   7.954361  -0.026858
     6  C   -0.028860  -0.001946   0.329555   0.001859  -0.026858   4.815279
     7  H   -0.003517   0.000705   0.058837  -0.001755  -0.000424  -0.004339
     8  H   -0.039334   0.408924   0.001453   0.004975   0.003530  -0.002255
     9  H   -0.032106   0.407691   0.007024  -0.004729  -0.003867   0.000132
    10  H   -0.043005   0.400661   0.000368  -0.000219   0.004415  -0.000754
    11  H    0.007262  -0.000241  -0.042290  -0.000179  -0.002678   0.413903
    12  H   -0.000726  -0.000561  -0.035118   0.000415   0.003398   0.401119
    13  H   -0.004716   0.001141  -0.030341  -0.000339   0.002455   0.384133
    14  Cl   0.000451  -0.000007  -0.035180   0.004494   0.000592   0.002384
               7          8          9         10         11         12
     1  C   -0.003517  -0.039334  -0.032106  -0.043005   0.007262  -0.000726
     2  C    0.000705   0.408924   0.407691   0.400661  -0.000241  -0.000561
     3  C    0.058837   0.001453   0.007024   0.000368  -0.042290  -0.035118
     4  H   -0.001755   0.004975  -0.004729  -0.000219  -0.000179   0.000415
     5  O   -0.000424   0.003530  -0.003867   0.004415  -0.002678   0.003398
     6  C   -0.004339  -0.002255   0.000132  -0.000754   0.413903   0.401119
     7  H    0.406648   0.000035  -0.000043  -0.000008  -0.001119  -0.000608
     8  H    0.000035   0.569336  -0.028270  -0.026383  -0.000219   0.000454
     9  H   -0.000043  -0.028270   0.570479  -0.030459   0.000078  -0.000036
    10  H   -0.000008  -0.026383  -0.030459   0.592141  -0.000082   0.000041
    11  H   -0.001119  -0.000219   0.000078  -0.000082   0.555838  -0.024944
    12  H   -0.000608   0.000454  -0.000036   0.000041  -0.024944   0.570040
    13  H    0.001059   0.001890  -0.000384   0.000714  -0.031534  -0.028298
    14  Cl   0.345754  -0.000003   0.000004  -0.000004   0.000460   0.001508
              13         14
     1  C   -0.004716   0.000451
     2  C    0.001141  -0.000007
     3  C   -0.030341  -0.035180
     4  H   -0.000339   0.004494
     5  O    0.002455   0.000592
     6  C    0.384133   0.002384
     7  H    0.001059   0.345754
     8  H    0.001890  -0.000003
     9  H   -0.000384   0.000004
    10  H    0.000714  -0.000004
    11  H   -0.031534   0.000460
    12  H   -0.028298   0.001508
    13  H    0.602892  -0.000222
    14  Cl  -0.000222  16.920410
          Atomic-Atomic Spin Densities.
               1          2          3          4          5          6
     1  C   -0.000713  -0.002008  -0.028055   0.005922   0.007117   0.012263
     2  C   -0.002008   0.003861  -0.003444  -0.000802   0.009068  -0.002906
     3  C   -0.028055  -0.003444   0.958122  -0.003978  -0.119412  -0.038250
     4  H    0.005922  -0.000802  -0.003978  -0.002366   0.001270   0.001146
     5  O    0.007117   0.009068  -0.119412   0.001270   0.234873   0.000650
     6  C    0.012263  -0.002906  -0.038250   0.001146   0.000650   0.022280
     7  H   -0.002770   0.000217   0.041036  -0.000398  -0.002667  -0.003697
     8  H    0.000323   0.000725  -0.001413  -0.000200   0.000093  -0.000122
     9  H   -0.000728  -0.002721   0.001845   0.001211  -0.001880   0.000244
    10  H   -0.001207   0.002045  -0.002145  -0.001234   0.000539  -0.000466
    11  H    0.000560  -0.000224  -0.010011   0.000090   0.000221   0.010481
    12  H    0.000167   0.000096  -0.002135  -0.000049  -0.000116   0.004166
    13  H   -0.004793   0.002024  -0.011741  -0.000335   0.005152  -0.015037
    14  Cl   0.002416  -0.000127  -0.036698   0.000858   0.001976   0.003100
               7          8          9         10         11         12
     1  C   -0.002770   0.000323  -0.000728  -0.001207   0.000560   0.000167
     2  C    0.000217   0.000725  -0.002721   0.002045  -0.000224   0.000096
     3  C    0.041036  -0.001413   0.001845  -0.002145  -0.010011  -0.002135
     4  H   -0.000398  -0.000200   0.001211  -0.001234   0.000090  -0.000049
     5  O   -0.002667   0.000093  -0.001880   0.000539   0.000221  -0.000116
     6  C   -0.003697  -0.000122   0.000244  -0.000466   0.010481   0.004166
     7  H   -0.027001   0.000014  -0.000031   0.000071  -0.000684   0.000018
     8  H    0.000014  -0.000910  -0.000082   0.000057  -0.000040  -0.000031
     9  H   -0.000031  -0.000082   0.011117  -0.003448   0.000020   0.000001
    10  H    0.000071   0.000057  -0.003448   0.005086  -0.000035  -0.000029
    11  H   -0.000684  -0.000040   0.000020  -0.000035   0.010781   0.000440
    12  H    0.000018  -0.000031   0.000001  -0.000029   0.000440  -0.002434
    13  H    0.000630   0.000785  -0.000491   0.000988  -0.009890  -0.000305
    14  Cl  -0.008872  -0.000007   0.000015  -0.000045   0.000570  -0.000015
              13         14
     1  C   -0.004793   0.002416
     2  C    0.002024  -0.000127
     3  C   -0.011741  -0.036698
     4  H   -0.000335   0.000858
     5  O    0.005152   0.001976
     6  C   -0.015037   0.003100
     7  H    0.000630  -0.008872
     8  H    0.000785  -0.000007
     9  H   -0.000491   0.000015
    10  H    0.000988  -0.000045
    11  H   -0.009890   0.000570
    12  H   -0.000305  -0.000015
    13  H    0.089067  -0.000347
    14  Cl  -0.000347   0.109221
 Mulliken charges and spin densities:
               1          2
     1  C    0.024339  -0.011507
     2  C   -0.275582   0.005805
     3  C    0.077052   0.743719
     4  H    0.139370   0.001134
     5  O   -0.303488   0.136884
     6  C   -0.283355  -0.006148
     7  H    0.198775  -0.004135
     8  H    0.105864  -0.000808
     9  H    0.114485   0.005072
    10  H    0.102575   0.000178
    11  H    0.125744   0.002279
    12  H    0.113315  -0.000224
    13  H    0.101547   0.055707
    14  Cl  -0.240641   0.072044
 Sum of Mulliken charges =  -0.00000   1.00000
 Mulliken charges and spin densities with hydrogens summed into heavy atoms:
               1          2
     1  C    0.163709  -0.010373
     2  C    0.047341   0.010247
     3  C    0.077052   0.743719
     5  O   -0.303488   0.136884
     6  C    0.057251   0.051614
    14  Cl  -0.041866   0.067909
 Electronic spatial extent (au):  <R**2>=           1122.3852
 Charge=             -0.0000 electrons
 Dipole moment (field-independent basis, Debye):
    X=             -2.8542    Y=              0.4908    Z=             -1.7895  Tot=              3.4043
 Quadrupole moment (field-independent basis, Debye-Ang):
   XX=            -48.0840   YY=            -40.7810   ZZ=            -47.5866
   XY=              1.5716   XZ=              2.7359   YZ=              0.1708
 Traceless Quadrupole moment (field-independent basis, Debye-Ang):
   XX=             -2.6001   YY=              4.7029   ZZ=             -2.1027
   XY=              1.5716   XZ=              2.7359   YZ=              0.1708
 Octapole moment (field-independent basis, Debye-Ang**2):
  XXX=            -13.9092  YYY=              0.2662  ZZZ=             -1.3816  XYY=             -2.7772
  XXY=             -2.5021  XXZ=             -1.7321  XZZ=              3.5356  YZZ=              0.2100
  YYZ=              1.8496  XYZ=              0.1479
 Hexadecapole moment (field-independent basis, Debye-Ang**3):
 XXXX=          -1022.2802 YYYY=           -298.8122 ZZZZ=           -139.5098 XXXY=             -3.5162
 XXXZ=             -5.0907 YYYX=              0.6301 YYYZ=              1.2004 ZZZX=              0.5089
 ZZZY=              1.3548 XXYY=           -217.1672 XXZZ=           -200.3814 YYZZ=            -71.8865
 XXYZ=             -0.5686 YYXZ=             -2.2426 ZZXY=              1.8666
 N-N= 2.739977271293D+02 E-N=-2.183248909779D+03  KE= 6.902215168627D+02
                          Isotropic Fermi Contact Couplings
        Atom                 a.u.       MegaHertz       Gauss      10(-4) cm-1
     1  C(13)              0.00245       2.75876       0.98439       0.92022
     2  C(13)             -0.00239      -2.69113      -0.96026      -0.89766
     3  C(13)              0.20245     227.59737      81.21240      75.91831
     4  H(1)               0.00152       6.77586       2.41780       2.26018
     5  O(17)              0.03798     -23.02578      -8.21617      -7.68057
     6  C(13)              0.02705      30.40572      10.84952      10.14226
     7  H(1)              -0.00559     -24.97672      -8.91231      -8.33134
     8  H(1)              -0.00015      -0.67830      -0.24203      -0.22626
     9  H(1)               0.00217       9.69087       3.45794       3.23253
    10  H(1)               0.00074       3.29574       1.17600       1.09934
    11  H(1)               0.00336      15.02952       5.36291       5.01331
    12  H(1)               0.00107       4.79062       1.70941       1.59798
    13  H(1)               0.02116      94.58780      33.75128      31.55109
    14  Cl(35)             0.04861      21.31276       7.60492       7.10917
 --------------------------------------------------------
       Center         ----  Spin Dipole Couplings  ----
                      3XX-RR        3YY-RR        3ZZ-RR
 --------------------------------------------------------
     1   Atom        0.002940      0.011628     -0.014569
     2   Atom        0.012599     -0.006076     -0.006523
     3   Atom        0.796538     -0.392908     -0.403630
     4   Atom       -0.009420      0.017788     -0.008368
     5   Atom        0.708492     -0.349711     -0.358780
     6   Atom       -0.028123      0.051544     -0.023421
     7   Atom        0.073859     -0.033492     -0.040367
     8   Atom        0.007545     -0.003991     -0.003554
     9   Atom        0.001824      0.000568     -0.002392
    10   Atom        0.000307     -0.001310      0.001004
    11   Atom       -0.009210      0.019590     -0.010380
    12   Atom       -0.008381      0.004365      0.004016
    13   Atom        0.003368      0.004422     -0.007790
    14   Atom        0.427153     -0.185125     -0.242027
 --------------------------------------------------------
                        XY            XZ            YZ
 --------------------------------------------------------
     1   Atom        0.026055     -0.009619     -0.000966
     2   Atom        0.006581      0.004794      0.003703
     3   Atom       -0.241828      0.182004     -0.027137
     4   Atom        0.004272      0.000767      0.004086
     5   Atom       -0.334105      0.315612     -0.062098
     6   Atom       -0.030185      0.010706     -0.029812
     7   Atom       -0.031471     -0.011655      0.003399
     8   Atom        0.002122      0.004667      0.000071
     9   Atom        0.004145      0.001499      0.000164
    10   Atom        0.003112      0.004128      0.002945
    11   Atom        0.001186      0.000654      0.005477
    12   Atom        0.001425     -0.002458     -0.015862
    13   Atom       -0.005976      0.002660     -0.005594
    14   Atom       -0.210858     -0.080072      0.025028
 --------------------------------------------------------


 ---------------------------------------------------------------------------------
              Anisotropic Spin Dipole Couplings in Principal Axis System
 ---------------------------------------------------------------------------------

       Atom             a.u.   MegaHertz   Gauss  10(-4) cm-1        Axes

              Baa    -0.0242    -3.252    -1.160    -1.085  0.6526 -0.4579  0.6037
     1 C(13)  Bbb    -0.0105    -1.404    -0.501    -0.468 -0.3839  0.4871  0.7845
              Bcc     0.0347     4.656     1.661     1.553  0.6532  0.7437 -0.1421
 
              Baa    -0.0101    -1.353    -0.483    -0.451 -0.0726  0.7385 -0.6704
     2 C(13)  Bbb    -0.0060    -0.811    -0.289    -0.270 -0.3910  0.5973  0.7003
              Bcc     0.0161     2.164     0.772     0.722  0.9175  0.3129  0.2454
 
              Baa    -0.4448   -59.688   -21.298   -19.910  0.2352  0.8428 -0.4842
     3 C(13)  Bbb    -0.4256   -57.105   -20.377   -19.048 -0.0288  0.5040  0.8632
              Bcc     0.8704   116.793    41.675    38.958  0.9715 -0.1890  0.1428
 
              Baa    -0.0101    -5.385    -1.921    -1.796  0.9835 -0.1327 -0.1229
     4 H(1)   Bbb    -0.0090    -4.791    -1.710    -1.598  0.1003 -0.1658  0.9811
              Bcc     0.0191    10.176     3.631     3.394  0.1506  0.9772  0.1497
 
              Baa    -0.4711    34.088    12.163    11.370  0.3630  0.6656 -0.6521
     5 O(17)  Bbb    -0.4165    30.137    10.753    10.052  0.0064  0.6980  0.7160
              Bcc     0.8876   -64.224   -22.917   -21.423  0.9318 -0.2641  0.2491
 
              Baa    -0.0384    -5.147    -1.836    -1.717  0.9521  0.2762 -0.1313
     6 C(13)  Bbb    -0.0338    -4.539    -1.620    -1.514  0.0312  0.3393  0.9401
              Bcc     0.0722     9.686     3.456     3.231 -0.3042  0.8992 -0.3145
 
              Baa    -0.0421   -22.476    -8.020    -7.497  0.2095  0.9072 -0.3649
     7 H(1)   Bbb    -0.0415   -22.125    -7.895    -7.380  0.1836  0.3300  0.9259
              Bcc     0.0836    44.601    15.915    14.877  0.9604 -0.2610 -0.0975
 
              Baa    -0.0056    -2.980    -1.063    -0.994 -0.3629  0.4463  0.8180
     8 H(1)   Bbb    -0.0040    -2.114    -0.754    -0.705  0.0276  0.8826 -0.4693
              Bcc     0.0095     5.094     1.818     1.699  0.9314  0.1477  0.3326
 
              Baa    -0.0037    -1.953    -0.697    -0.651 -0.5766  0.5417  0.6116
     9 H(1)   Bbb    -0.0019    -1.027    -0.366    -0.343  0.3024 -0.5539  0.7757
              Bcc     0.0056     2.980     1.063     0.994  0.7590  0.6322  0.1556
 
              Baa    -0.0038    -2.009    -0.717    -0.670  0.7286 -0.6441 -0.2330
    10 H(1)   Bbb    -0.0032    -1.725    -0.616    -0.576 -0.3092 -0.6129  0.7272
              Bcc     0.0070     3.734     1.332     1.246  0.6112  0.4577  0.6457
 
              Baa    -0.0114    -6.102    -2.177    -2.036 -0.1970 -0.1631  0.9667
    11 H(1)   Bbb    -0.0092    -4.896    -1.747    -1.633  0.9795 -0.0759  0.1868
              Bcc     0.0206    10.999     3.925     3.669  0.0429  0.9837  0.1747
 
              Baa    -0.0118    -6.320    -2.255    -2.108  0.2251  0.6713  0.7062
    12 H(1)   Bbb    -0.0085    -4.519    -1.613    -1.508  0.9697 -0.2252 -0.0951
              Bcc     0.0203    10.839     3.868     3.616  0.0952  0.7062 -0.7016
 
              Baa    -0.0100    -5.322    -1.899    -1.775 -0.0292  0.3515  0.9357
    13 H(1)   Bbb    -0.0017    -0.929    -0.331    -0.310  0.7868  0.5855 -0.1954
              Bcc     0.0117     6.250     2.230     2.085 -0.6166  0.7305 -0.2936
 
              Baa    -0.2515   -13.163    -4.697    -4.391  0.0630 -0.1706  0.9833
    14 Cl(35) Bbb    -0.2507   -13.121    -4.682    -4.377  0.3094  0.9401  0.1433
              Bcc     0.5022    26.284     9.379     8.767  0.9489 -0.2952 -0.1120
 

 ---------------------------------------------------------------------------------

 No NMR shielding tensors so no spin-rotation constants.
 Leave Link  601 at Mon Oct  7 11:23:17 2024, MaxMem=  2684354560 cpu:               1.3 elap:               0.3
 (Enter /gpfs/fs1/soft/bebop/software/custom-built/gaussian/16-c.02/g16/l701.exe)
 ... and contract with generalized density number  2.
 Compute integral first derivatives.
 R6Disp: Adding Grimme-D3(BJ) dispersion energy 1st derivatives to the gradient.
 Leave Link  701 at Mon Oct  7 11:23:17 2024, MaxMem=  2684354560 cpu:               0.8 elap:               0.2
 (Enter /gpfs/fs1/soft/bebop/software/custom-built/gaussian/16-c.02/g16/l702.exe)
 L702 exits ... SP integral derivatives will be done elsewhere.
 Leave Link  702 at Mon Oct  7 11:23:17 2024, MaxMem=  2684354560 cpu:               0.1 elap:               0.0
 (Enter /gpfs/fs1/soft/bebop/software/custom-built/gaussian/16-c.02/g16/l703.exe)
 Integral derivatives from FoFJK, PRISM(SPDF).
 Compute integral first derivatives, UseDBF=F ICtDFT=           0.
 Calling FoFJK, ICntrl=  10002127 FMM=F ISym2X=0 I1Cent= 0 IOpClX= 1 NMat=1 NMatS=1 NMatT=0.
 FoFJK:  IHMeth= 1 ICntrl=10002127 DoSepK=F KAlg= 0 I1Cent=           0 FoldK=F
 IRaf=         0 NMat=       1 IRICut=       1 DoRegI=T DoRafI=F ISym2E= 0 IDoP0=0 IntGTp=1.
 FoFCou: FMM=F IPFlag=           0 FMFlag=      100000 FMFlg1=         800
         NFxFlg=           0 DoJE=F BraDBF=F KetDBF=F FulRan=T
         wScrn=  0.000000 ICntrl=  10002127 IOpCl=  1 I1Cent=           0 NGrid=           0
         NMat0=    1 NMatS0=      1 NMatT0=    0 NMatD0=    1 NMtDS0=    0 NMtDT0=    0
 Symmetry not used in FoFCou.
 Leave Link  703 at Mon Oct  7 11:23:36 2024, MaxMem=  2684354560 cpu:             110.9 elap:              18.6
 (Enter /gpfs/fs1/soft/bebop/software/custom-built/gaussian/16-c.02/g16/l716.exe)
 Dipole        =-1.17860519D+00 1.90656111D-01-6.24957702D-01
 ***** Axes restored to original set *****
 -------------------------------------------------------------------
 Center     Atomic                   Forces (Hartrees/Bohr)
 Number     Number              X              Y              Z
 -------------------------------------------------------------------
      1        6          -0.000020839    0.000052466    0.000030637
      2        6          -0.000016186   -0.000034745   -0.000006030
      3        6          -0.000049993    0.000055816   -0.000091695
      4        1          -0.000025285   -0.000000366   -0.000015327
      5        8           0.000033808    0.000008418   -0.000025985
      6        6           0.000031162   -0.000012680   -0.000049253
      7        1           0.005767332   -0.010217866    0.015809433
      8        1           0.000011230    0.000007862    0.000002320
      9        1           0.000007289    0.000011595   -0.000011955
     10        1           0.000004417   -0.000002828   -0.000002428
     11        1          -0.000022116    0.000005162    0.000022444
     12        1           0.000001855    0.000013331   -0.000004177
     13        1          -0.000011292   -0.000005227   -0.000001593
     14       17          -0.005711381    0.010119062   -0.015656392
 -------------------------------------------------------------------
 Cartesian Forces:  Max     0.015809433 RMS     0.004275542
 -----------------------------------------------------------------------------------------------
                       Internal Coordinate Forces (Hartree/Bohr or radian)
  Cent   Atom   N1       Length/X         N2         Alpha/Y        N3         Beta/Z          J
 -----------------------------------------------------------------------------------------------
      1  C 
      2  C        1  -0.000018(     1)
      3  C        1   0.000031(     2)      2  -0.000004(    15)
      4  H        1   0.000028(     3)      2   0.000006(    16)      3  -0.000015(    28)     0
      5  O        3  -0.000026(     4)      1   0.000090(    17)      2  -0.000015(    29)     0
      6  C        3  -0.000005(     5)      1   0.000078(    18)      5  -0.000010(    30)     0
      7  H        3  -0.000189(     6)      1  -0.000009(    19)      5  -0.000014(    31)     0
      8  H        2   0.000008(     7)      1  -0.000001(    20)      3   0.000005(    32)     0
      9  H        2  -0.000016(     8)      1  -0.000014(    21)      8  -0.000009(    33)     0
     10  H        2  -0.000004(     9)      1  -0.000002(    22)      8  -0.000008(    34)     0
     11  H        6  -0.000029(    10)      3  -0.000016(    23)      1  -0.000018(    35)     0
     12  H        6   0.000014(    11)      3  -0.000003(    24)     11  -0.000004(    36)     0
     13  H        6  -0.000003(    12)      3  -0.000024(    25)     11   0.000006(    37)     0
         X        7  -0.000000(    13)      3  -0.000033(    26)      6  -0.000002(    38)     0
     14  Cl       7   0.019497(    14)     14  -0.000033(    27)      3  -0.000066(    39)     0
 -----------------------------------------------------------------------------------------------
 Internal  Forces:  Max     0.019497101 RMS     0.003122294
 Force constants in internal coordinates: 
                1             2             3             4             5 
      1  0.326835D+00
      2  0.000000D+00  0.543201D+00
      3  0.000000D+00  0.000000D+00  0.355985D+00
      4  0.000000D+00  0.387300D-01  0.000000D+00  0.653102D+00
      5  0.000000D+00  0.000000D+00  0.000000D+00  0.000000D+00  0.342736D+00
      6  0.000000D+00  0.000000D+00  0.000000D+00  0.000000D+00  0.000000D+00
      7  0.000000D+00  0.000000D+00  0.000000D+00  0.000000D+00  0.000000D+00
      8  0.000000D+00  0.000000D+00  0.000000D+00  0.000000D+00  0.000000D+00
      9  0.000000D+00  0.000000D+00  0.000000D+00  0.000000D+00  0.000000D+00
     10  0.000000D+00  0.000000D+00  0.000000D+00  0.000000D+00  0.000000D+00
     11  0.000000D+00  0.000000D+00  0.000000D+00  0.000000D+00  0.000000D+00
     12  0.000000D+00  0.000000D+00  0.000000D+00  0.000000D+00  0.000000D+00
     13  0.000000D+00  0.000000D+00  0.000000D+00  0.000000D+00  0.000000D+00
     14  0.000000D+00  0.000000D+00  0.000000D+00  0.000000D+00  0.000000D+00
     15  0.000000D+00  0.855017D-03  0.000000D+00 -0.906126D-03  0.000000D+00
     16  0.000000D+00 -0.918296D-02  0.000000D+00  0.973187D-02  0.000000D+00
     17  0.000000D+00  0.433008D+00  0.000000D+00  0.362999D+00  0.000000D+00
     18  0.000000D+00  0.000000D+00  0.000000D+00  0.000000D+00  0.000000D+00
     19  0.000000D+00  0.000000D+00  0.000000D+00  0.000000D+00  0.000000D+00
     20  0.000000D+00  0.000000D+00  0.000000D+00  0.000000D+00  0.000000D+00
     21  0.000000D+00  0.000000D+00  0.000000D+00  0.000000D+00  0.000000D+00
     22  0.000000D+00  0.000000D+00  0.000000D+00  0.000000D+00  0.000000D+00
     23  0.000000D+00  0.000000D+00  0.000000D+00  0.000000D+00  0.000000D+00
     24  0.000000D+00  0.000000D+00  0.000000D+00  0.000000D+00  0.000000D+00
     25  0.000000D+00  0.000000D+00  0.000000D+00  0.000000D+00  0.000000D+00
     26  0.000000D+00  0.000000D+00  0.000000D+00  0.000000D+00  0.000000D+00
     27  0.000000D+00  0.000000D+00  0.000000D+00  0.000000D+00  0.000000D+00
     28  0.000000D+00  0.118791D-01  0.000000D+00 -0.125892D-01  0.000000D+00
     29  0.000000D+00  0.832617D-02  0.000000D+00 -0.882386D-02  0.000000D+00
     30  0.000000D+00  0.000000D+00  0.000000D+00  0.000000D+00  0.000000D+00
     31  0.000000D+00  0.000000D+00  0.000000D+00  0.000000D+00  0.000000D+00
     32  0.000000D+00 -0.707325D-02  0.000000D+00  0.749605D-02  0.000000D+00
     33  0.000000D+00 -0.235775D-02  0.000000D+00  0.249868D-02  0.000000D+00
     34  0.000000D+00 -0.235775D-02  0.000000D+00  0.249868D-02  0.000000D+00
     35  0.000000D+00  0.000000D+00  0.000000D+00  0.000000D+00  0.000000D+00
     36  0.000000D+00  0.000000D+00  0.000000D+00  0.000000D+00  0.000000D+00
     37  0.000000D+00  0.000000D+00  0.000000D+00  0.000000D+00  0.000000D+00
     38  0.000000D+00  0.000000D+00  0.000000D+00  0.000000D+00  0.000000D+00
     39  0.000000D+00  0.000000D+00  0.000000D+00  0.000000D+00  0.000000D+00
                6             7             8             9            10 
      6  0.464296D-01
      7  0.000000D+00  0.351499D+00
      8  0.000000D+00  0.000000D+00  0.348937D+00
      9  0.000000D+00  0.000000D+00  0.000000D+00  0.347895D+00
     10  0.000000D+00  0.000000D+00  0.000000D+00  0.000000D+00  0.349866D+00
     11  0.000000D+00  0.000000D+00  0.000000D+00  0.000000D+00  0.000000D+00
     12  0.000000D+00  0.000000D+00  0.000000D+00  0.000000D+00  0.000000D+00
     13  0.000000D+00  0.000000D+00  0.000000D+00  0.000000D+00  0.000000D+00
     14  0.000000D+00  0.000000D+00  0.000000D+00  0.000000D+00  0.000000D+00
     15  0.000000D+00  0.000000D+00  0.000000D+00  0.000000D+00  0.000000D+00
     16  0.000000D+00  0.000000D+00  0.000000D+00  0.000000D+00  0.000000D+00
     17  0.000000D+00  0.000000D+00  0.000000D+00  0.000000D+00  0.000000D+00
     18  0.000000D+00  0.000000D+00  0.000000D+00  0.000000D+00  0.000000D+00
     19  0.000000D+00  0.000000D+00  0.000000D+00  0.000000D+00  0.000000D+00
     20  0.000000D+00  0.000000D+00  0.000000D+00  0.000000D+00  0.000000D+00
     21  0.000000D+00  0.000000D+00  0.000000D+00  0.000000D+00  0.000000D+00
     22  0.000000D+00  0.000000D+00  0.000000D+00  0.000000D+00  0.000000D+00
     23  0.000000D+00  0.000000D+00  0.000000D+00  0.000000D+00  0.000000D+00
     24  0.000000D+00  0.000000D+00  0.000000D+00  0.000000D+00  0.000000D+00
     25  0.000000D+00  0.000000D+00  0.000000D+00  0.000000D+00  0.000000D+00
     26  0.000000D+00  0.000000D+00  0.000000D+00  0.000000D+00  0.000000D+00
     27  0.000000D+00  0.000000D+00  0.000000D+00  0.000000D+00  0.000000D+00
     28  0.000000D+00  0.000000D+00  0.000000D+00  0.000000D+00  0.000000D+00
     29  0.000000D+00  0.000000D+00  0.000000D+00  0.000000D+00  0.000000D+00
     30  0.000000D+00  0.000000D+00  0.000000D+00  0.000000D+00  0.000000D+00
     31  0.000000D+00  0.000000D+00  0.000000D+00  0.000000D+00  0.000000D+00
     32  0.000000D+00  0.000000D+00  0.000000D+00  0.000000D+00  0.000000D+00
     33  0.000000D+00  0.000000D+00  0.000000D+00  0.000000D+00  0.000000D+00
     34  0.000000D+00  0.000000D+00  0.000000D+00  0.000000D+00  0.000000D+00
     35  0.000000D+00  0.000000D+00  0.000000D+00  0.000000D+00  0.000000D+00
     36  0.000000D+00  0.000000D+00  0.000000D+00  0.000000D+00  0.000000D+00
[...]
  Beta virt. eigenvalues --    2.26732   2.33890   2.34313   2.36820   2.37547
  Beta virt. eigenvalues --    2.39467   2.40704   2.43546   2.48646   2.49468
  Beta virt. eigenvalues --    2.51585   2.53086   2.58337   2.60433   2.62874
  Beta virt. eigenvalues --    2.66967   2.70240   2.73193   2.75326   2.78022
  Beta virt. eigenvalues --    2.81402   2.82562   2.85243   2.85520   2.87586
  Beta virt. eigenvalues --    2.89432   2.90657   2.93368   2.96715   2.97015
  Beta virt. eigenvalues --    2.99872   3.00319   3.03915   3.04860   3.05359
  Beta virt. eigenvalues --    3.09078   3.11095   3.12139   3.15178   3.15749
  Beta virt. eigenvalues --    3.17956   3.21199   3.21314   3.23436   3.25638
  Beta virt. eigenvalues --    3.27707   3.31845   3.32470   3.36914   3.37565
  Beta virt. eigenvalues --    3.40417   3.42142   3.42817   3.44997   3.45718
  Beta virt. eigenvalues --    3.48347   3.49788   3.52798   3.53497   3.55713
  Beta virt. eigenvalues --    3.57280   3.58116   3.60186   3.61560   3.62998
  Beta virt. eigenvalues --    3.64645   3.69264   3.69800   3.71851   3.77781
  Beta virt. eigenvalues --    3.78787   3.81671   3.86912   3.89170   3.89551
  Beta virt. eigenvalues --    3.92441   3.94346   3.95550   3.96912   3.97278
  Beta virt. eigenvalues --    4.01742   4.02383   4.05715   4.06400   4.11920
  Beta virt. eigenvalues --    4.14413   4.15645   4.17242   4.19840   4.21808
  Beta virt. eigenvalues --    4.22731   4.25042   4.25704   4.26995   4.29683
  Beta virt. eigenvalues --    4.32956   4.37106   4.38434   4.40083   4.42649
  Beta virt. eigenvalues --    4.42825   4.44618   4.48852   4.53202   4.56102
  Beta virt. eigenvalues --    4.60088   4.65019   4.67861   4.72075   4.81293
  Beta virt. eigenvalues --    4.87459   4.92046   4.94142   4.97916   4.98081
  Beta virt. eigenvalues --    5.03466   5.04946   5.10937   5.13596   5.18417
  Beta virt. eigenvalues --    5.22159   5.25999   5.26516   5.29777   5.30441
  Beta virt. eigenvalues --    5.33320   5.35667   5.40554   5.44596   5.45723
  Beta virt. eigenvalues --    5.49285   5.49510   5.51414   5.54016   5.55005
  Beta virt. eigenvalues --    5.68502   5.71603   5.85683   5.91852   5.94706
  Beta virt. eigenvalues --    5.97050   6.03610   6.06429   6.09887   6.14364
  Beta virt. eigenvalues --    6.25623   6.48593   6.54791   6.83887   6.94021
  Beta virt. eigenvalues --    7.07184   7.17376   7.42067   9.74823  11.11933
  Beta virt. eigenvalues --   12.47060  13.57768  14.15662
          Condensed to atoms (all electrons):
               1          2          3          4          5          6
     1  C    4.835626   0.353146   0.353664   0.420140   0.157823  -0.028865
     2  C    0.353146   4.810458  -0.051529  -0.037307  -0.015663  -0.001947
     3  C    0.353664  -0.051529   5.155173  -0.032715   0.243414   0.329583
     4  H    0.420140  -0.037307  -0.032715   0.522742  -0.016983   0.001867
     5  O    0.157823  -0.015663   0.243414  -0.016983   7.954191  -0.026876
     6  C   -0.028865  -0.001947   0.329583   0.001867  -0.026876   4.815222
     7  H   -0.003568   0.000717   0.060048  -0.001797  -0.000374  -0.004390
     8  H   -0.039350   0.408936   0.001462   0.004968   0.003533  -0.002253
     9  H   -0.032105   0.407690   0.007020  -0.004722  -0.003872   0.000132
    10  H   -0.043016   0.400690   0.000366  -0.000226   0.004414  -0.000746
    11  H    0.007274  -0.000241  -0.042268  -0.000178  -0.002678   0.413853
    12  H   -0.000705  -0.000561  -0.035112   0.000414   0.003392   0.401161
    13  H   -0.004768   0.001150  -0.030259  -0.000340   0.002452   0.384160
    14  Cl   0.000442  -0.000006  -0.036248   0.004595   0.000603   0.002430
               7          8          9         10         11         12
     1  C   -0.003568  -0.039350  -0.032105  -0.043016   0.007274  -0.000705
     2  C    0.000717   0.408936   0.407690   0.400690  -0.000241  -0.000561
     3  C    0.060048   0.001462   0.007020   0.000366  -0.042268  -0.035112
     4  H   -0.001797   0.004968  -0.004722  -0.000226  -0.000178   0.000414
     5  O   -0.000374   0.003533  -0.003872   0.004414  -0.002678   0.003392
     6  C   -0.004390  -0.002253   0.000132  -0.000746   0.413853   0.401161
     7  H    0.405695   0.000036  -0.000044  -0.000010  -0.001131  -0.000626
     8  H    0.000036   0.569319  -0.028259  -0.026383  -0.000219   0.000453
     9  H   -0.000044  -0.028259   0.570422  -0.030450   0.000078  -0.000036
    10  H   -0.000010  -0.026383  -0.030450   0.592079  -0.000082   0.000040
    11  H   -0.001131  -0.000219   0.000078  -0.000082   0.555755  -0.024902
    12  H   -0.000626   0.000453  -0.000036   0.000040  -0.024902   0.569831
    13  H    0.001077   0.001894  -0.000383   0.000710  -0.031524  -0.028321
    14  Cl   0.345531  -0.000004   0.000004  -0.000004   0.000470   0.001550
              13         14
     1  C   -0.004768   0.000442
     2  C    0.001150  -0.000006
     3  C   -0.030259  -0.036248
     4  H   -0.000340   0.004595
     5  O    0.002452   0.000603
     6  C    0.384160   0.002430
     7  H    0.001077   0.345531
     8  H    0.001894  -0.000004
     9  H   -0.000383   0.000004
    10  H    0.000710  -0.000004
    11  H   -0.031524   0.000470
    12  H   -0.028321   0.001550
    13  H    0.602826  -0.000229
    14  Cl  -0.000229  16.922448
          Atomic-Atomic Spin Densities.
               1          2          3          4          5          6
     1  C   -0.000588  -0.002022  -0.028009   0.005901   0.007046   0.012261
     2  C   -0.002022   0.003847  -0.003424  -0.000800   0.009061  -0.002895
     3  C   -0.028009  -0.003424   0.956501  -0.003972  -0.119373  -0.038263
     4  H    0.005901  -0.000800  -0.003972  -0.002380   0.001269   0.001147
     5  O    0.007046   0.009061  -0.119373   0.001269   0.235173   0.000647
     6  C    0.012261  -0.002895  -0.038263   0.001147   0.000647   0.022328
     7  H   -0.002783   0.000218   0.041572  -0.000396  -0.002694  -0.003736
     8  H    0.000318   0.000729  -0.001417  -0.000201   0.000097  -0.000123
     9  H   -0.000727  -0.002726   0.001838   0.001213  -0.001881   0.000243
    10  H   -0.001203   0.002043  -0.002135  -0.001235   0.000538  -0.000464
    11  H    0.000566  -0.000223  -0.009981   0.000090   0.000220   0.010429
    12  H    0.000172   0.000094  -0.002162  -0.000048  -0.000116   0.004199
    13  H   -0.004805   0.002016  -0.011661  -0.000335   0.005137  -0.014948
    14  Cl   0.002496  -0.000132  -0.037737   0.000883   0.002046   0.003199
               7          8          9         10         11         12
     1  C   -0.002783   0.000318  -0.000727  -0.001203   0.000566   0.000172
     2  C    0.000218   0.000729  -0.002726   0.002043  -0.000223   0.000094
     3  C    0.041572  -0.001417   0.001838  -0.002135  -0.009981  -0.002162
     4  H   -0.000396  -0.000201   0.001213  -0.001235   0.000090  -0.000048
     5  O   -0.002694   0.000097  -0.001881   0.000538   0.000220  -0.000116
     6  C   -0.003736  -0.000123   0.000243  -0.000464   0.010429   0.004199
     7  H   -0.027470   0.000014  -0.000031   0.000072  -0.000686   0.000016
     8  H    0.000014  -0.000908  -0.000088   0.000061  -0.000040  -0.000031
     9  H   -0.000031  -0.000088   0.011133  -0.003444   0.000020   0.000001
    10  H    0.000072   0.000061  -0.003444   0.005063  -0.000035  -0.000030
    11  H   -0.000686  -0.000040   0.000020  -0.000035   0.010718   0.000451
    12  H    0.000016  -0.000031   0.000001  -0.000030   0.000451  -0.002427
    13  H    0.000635   0.000788  -0.000489   0.000984  -0.009855  -0.000337
    14  Cl  -0.009196  -0.000008   0.000015  -0.000046   0.000585  -0.000011
              13         14
     1  C   -0.004805   0.002496
     2  C    0.002016  -0.000132
     3  C   -0.011661  -0.037737
     4  H   -0.000335   0.000883
     5  O    0.005137   0.002046
     6  C   -0.014948   0.003199
     7  H    0.000635  -0.009196
     8  H    0.000788  -0.000008
     9  H   -0.000489   0.000015
    10  H    0.000984  -0.000046
    11  H   -0.009855   0.000585
    12  H   -0.000337  -0.000011
    13  H    0.088818  -0.000359
    14  Cl  -0.000359   0.112149
 Mulliken charges and spin densities:
               1          2
     1  C    0.024263  -0.011375
     2  C   -0.275531   0.005785
     3  C    0.077401   0.741777
     4  H    0.139543   0.001136
     5  O   -0.303376   0.137170
     6  C   -0.283331  -0.005976
     7  H    0.198835  -0.004465
     8  H    0.105867  -0.000808
     9  H    0.114524   0.005078
    10  H    0.102619   0.000171
    11  H    0.125793   0.002261
    12  H    0.113422  -0.000227
    13  H    0.101555   0.055589
    14  Cl  -0.241583   0.073884
 Sum of Mulliken charges =  -0.00000   1.00000
 Mulliken charges and spin densities with hydrogens summed into heavy atoms:
               1          2
     1  C    0.163806  -0.010238
     2  C    0.047478   0.010225
     3  C    0.077401   0.741777
     5  O   -0.303376   0.137170
     6  C    0.057438   0.051647
    14  Cl  -0.042748   0.069420
 Electronic spatial extent (au):  <R**2>=           1118.4477
 Charge=             -0.0000 electrons
 Dipole moment (field-independent basis, Debye):
    X=             -2.8636    Y=              0.4958    Z=             -1.7872  Tot=              3.4118
 Quadrupole moment (field-independent basis, Debye-Ang):
   XX=            -48.0859   YY=            -40.7723   ZZ=            -47.5814
   XY=              1.5835   XZ=              2.7300   YZ=              0.1684
 Traceless Quadrupole moment (field-independent basis, Debye-Ang):
   XX=             -2.6060   YY=              4.7075   ZZ=             -2.1015
   XY=              1.5835   XZ=              2.7300   YZ=              0.1684
 Octapole moment (field-independent basis, Debye-Ang**2):
  XXX=            -13.9412  YYY=              0.2812  ZZZ=             -1.3766  XYY=             -2.7709
  XXY=             -2.4937  XXZ=             -1.7197  XZZ=              3.5150  YZZ=              0.2103
  YYZ=              1.8467  XYZ=              0.1525
 Hexadecapole moment (field-independent basis, Debye-Ang**3):
 XXXX=          -1017.4397 YYYY=           -298.7950 ZZZZ=           -139.4626 XXXY=             -3.4862
 XXXZ=             -5.0943 YYYX=              0.6287 YYYZ=              1.2027 ZZZX=              0.5083
 ZZZY=              1.3594 XXYY=           -216.3195 XXZZ=           -199.4773 YYZZ=            -71.8705
 XXYZ=             -0.5679 YYXZ=             -2.2329 ZZXY=              1.8796
 N-N= 2.742616376432D+02 E-N=-2.183778607083D+03  KE= 6.902235186183D+02
                          Isotropic Fermi Contact Couplings
        Atom                 a.u.       MegaHertz       Gauss      10(-4) cm-1
     1  C(13)              0.00242       2.71561       0.96900       0.90583
     2  C(13)             -0.00240      -2.69561      -0.96186      -0.89916
     3  C(13)              0.20175     226.80587      80.92997      75.65429
     4  H(1)               0.00150       6.70462       2.39237       2.23642
     5  O(17)              0.03793     -22.99382      -8.20477      -7.66991
     6  C(13)              0.02692      30.26006      10.79754      10.09367
     7  H(1)              -0.00569     -25.45308      -9.08229      -8.49023
     8  H(1)              -0.00015      -0.67951      -0.24247      -0.22666
     9  H(1)               0.00217       9.70046       3.46136       3.23572
    10  H(1)               0.00074       3.28604       1.17254       1.09610
    11  H(1)               0.00334      14.92712       5.32637       4.97915
    12  H(1)               0.00108       4.82392       1.72130       1.60909
    13  H(1)               0.02114      94.47696      33.71173      31.51412
    14  Cl(35)             0.04981      21.84003       7.79307       7.28505
 --------------------------------------------------------
       Center         ----  Spin Dipole Couplings  ----
                      3XX-RR        3YY-RR        3ZZ-RR
 --------------------------------------------------------
     1   Atom        0.002910      0.011653     -0.014563
     2   Atom        0.012580     -0.006068     -0.006512
     3   Atom        0.795317     -0.392010     -0.403308
     4   Atom       -0.009397      0.017754     -0.008358
     5   Atom        0.708661     -0.349255     -0.359406
     6   Atom       -0.028176      0.051586     -0.023410
     7   Atom        0.075069     -0.033993     -0.041077
     8   Atom        0.007545     -0.003996     -0.003548
     9   Atom        0.001829      0.000561     -0.002390
    10   Atom        0.000313     -0.001311      0.000998
    11   Atom       -0.009194      0.019556     -0.010362
    12   Atom       -0.008358      0.004371      0.003987
    13   Atom        0.003353      0.004433     -0.007785
    14   Atom        0.436498     -0.188740     -0.247758
 --------------------------------------------------------
                        XY            XZ            YZ
 --------------------------------------------------------
     1   Atom        0.026039     -0.009561     -0.000989
     2   Atom        0.006575      0.004773      0.003695
     3   Atom       -0.242919      0.181705     -0.027323
     4   Atom        0.004287      0.000762      0.004089
     5   Atom       -0.335559      0.315376     -0.062400
     6   Atom       -0.030078      0.010647     -0.029827
     7   Atom       -0.032170     -0.011859      0.003481
     8   Atom        0.002112      0.004663      0.000067
     9   Atom        0.004143      0.001496      0.000162
    10   Atom        0.003110      0.004125      0.002939
    11   Atom        0.001204      0.000662      0.005484
    12   Atom        0.001458     -0.002490     -0.015839
    13   Atom       -0.005957      0.002668     -0.005595
    14   Atom       -0.217160     -0.082447      0.025947
 --------------------------------------------------------


 ---------------------------------------------------------------------------------
              Anisotropic Spin Dipole Couplings in Principal Axis System
 ---------------------------------------------------------------------------------

       Atom             a.u.   MegaHertz   Gauss  10(-4) cm-1        Axes

              Baa    -0.0242    -3.244    -1.157    -1.082  0.6533 -0.4582  0.6028
     1 C(13)  Bbb    -0.0105    -1.409    -0.503    -0.470 -0.3837  0.4860  0.7852
              Bcc     0.0347     4.653     1.660     1.552  0.6527  0.7443 -0.1417
 
              Baa    -0.0101    -1.351    -0.482    -0.451 -0.0735  0.7392 -0.6694
     2 C(13)  Bbb    -0.0060    -0.809    -0.289    -0.270 -0.3906  0.5963  0.7014
              Bcc     0.0161     2.160     0.771     0.721  0.9176  0.3130  0.2449
 
              Baa    -0.4444   -59.630   -21.277   -19.890  0.2361  0.8427 -0.4839
     3 C(13)  Bbb    -0.4252   -57.058   -20.360   -19.032 -0.0283  0.5037  0.8634
              Bcc     0.8696   116.688    41.637    38.923  0.9713 -0.1901  0.1427
 
              Baa    -0.0101    -5.374    -1.918    -1.793  0.9841 -0.1345 -0.1164
     4 H(1)   Bbb    -0.0090    -4.788    -1.708    -1.597  0.0935 -0.1652  0.9818
              Bcc     0.0190    10.162     3.626     3.390  0.1513  0.9770  0.1500
 
              Baa    -0.4715    34.114    12.173    11.379  0.3634  0.6647 -0.6528
     5 O(17)  Bbb    -0.4169    30.167    10.764    10.063  0.0078  0.6985  0.7155
              Bcc     0.8884   -64.281   -22.937   -21.442  0.9316 -0.2651  0.2487
 
              Baa    -0.0383    -5.143    -1.835    -1.716  0.9526  0.2766 -0.1269
     6 C(13)  Bbb    -0.0338    -4.539    -1.619    -1.514  0.0271  0.3381  0.9407
              Bcc     0.0721     9.682     3.455     3.229 -0.3031  0.8996 -0.3145
 
              Baa    -0.0429   -22.873    -8.162    -7.630  0.2093  0.9044 -0.3717
     7 H(1)   Bbb    -0.0422   -22.512    -8.033    -7.509  0.1857  0.3365  0.9232
              Bcc     0.0851    45.385    16.195    15.139  0.9601 -0.2623 -0.0975
 
              Baa    -0.0056    -2.978    -1.063    -0.993 -0.3624  0.4489  0.8168
     8 H(1)   Bbb    -0.0040    -2.114    -0.754    -0.705  0.0292  0.8814 -0.4714
              Bcc     0.0095     5.092     1.817     1.698  0.9316  0.1470  0.3326
 
              Baa    -0.0037    -1.952    -0.696    -0.651 -0.5764  0.5426  0.6111
     9 H(1)   Bbb    -0.0019    -1.027    -0.366    -0.342  0.3017 -0.5536  0.7762
              Bcc     0.0056     2.978     1.063     0.993  0.7595  0.6317  0.1554
 
              Baa    -0.0038    -2.006    -0.716    -0.669  0.7279 -0.6450 -0.2326
    10 H(1)   Bbb    -0.0032    -1.724    -0.615    -0.575 -0.3098 -0.6121  0.7276
              Bcc     0.0070     3.730     1.331     1.244  0.6116  0.4576  0.6454
 
              Baa    -0.0114    -6.096    -2.175    -2.033 -0.1985 -0.1633  0.9664
    11 H(1)   Bbb    -0.0092    -4.888    -1.744    -1.631  0.9791 -0.0770  0.1881
              Bcc     0.0206    10.984     3.919     3.664  0.0436  0.9836  0.1752
 
              Baa    -0.0118    -6.314    -2.253    -2.106  0.2249  0.6707  0.7068
    12 H(1)   Bbb    -0.0085    -4.512    -1.610    -1.505  0.9695 -0.2262 -0.0939
              Bcc     0.0203    10.826     3.863     3.611  0.0969  0.7064 -0.7011
 
              Baa    -0.0100    -5.320    -1.898    -1.774 -0.0305  0.3509  0.9359
    13 H(1)   Bbb    -0.0017    -0.923    -0.329    -0.308  0.7874  0.5852 -0.1937
              Bcc     0.0117     6.243     2.228     2.082 -0.6157  0.7310 -0.2942
 
              Baa    -0.2576   -13.481    -4.810    -4.497  0.0648 -0.1664  0.9839
    14 Cl(35) Bbb    -0.2567   -13.438    -4.795    -4.482  0.3110  0.9403  0.1385
              Bcc     0.5143    26.919     9.605     8.979  0.9482 -0.2970 -0.1127
 

 ---------------------------------------------------------------------------------

 No NMR shielding tensors so no spin-rotation constants.
 Leave Link  601 at Mon Oct  7 11:41:05 2024, MaxMem=  2684354560 cpu:               1.4 elap:               0.3
 (Enter /gpfs/fs1/soft/bebop/software/custom-built/gaussian/16-c.02/g16/l9999.exe)
 Unable to Open any file for archive entry.
 1\1\GINC-CSED-0007\POpt\UB2PLYPD3-FC\CC-pVTZ\C4H8Cl1O1(2)\COPAN\07-Oct
 -2024\1\\#P b2plypd3/cc-pvtz # SCF=(xqc) # POpt=() # int=ultrafine\\co
 mment:\\0,2\C\C,1,R1\C,1,R2,2,A2\H,1,R3,2,A3,3,D3,0\O,3,R4,1,A4,2,D4,0
 \C,3,R5,1,A5,5,D5,0\H,3,R6,1,A6,5,D6,0\H,2,R7,1,A7,3,D7,0\H,2,R8,1,A8,
 8,D8,0\H,2,R9,1,A9,8,D9,0\H,6,R10,3,A10,1,D10,0\H,6,R11,3,A11,11,D11,0
 \H,6,R12,3,A12,11,D12,0\X,7,R13,3,A13,6,D13,0\Cl,7,R14,14,A14,3,D14,0\
 \R1=1.49703062\R2=1.44851151\R3=1.08333141\R4=1.3666362\R5=1.48260201\
 R6=1.94409024\R7=1.08711305\R8=1.08926949\R9=1.0901949\R10=1.08845199\
 R11=1.08751009\R12=1.09418704\A2=123.95037001\A3=116.35594872\A4=63.84
 517532\A5=136.03194454\A6=105.79402504\A7=111.21839873\A8=110.59855436
 \A9=109.68576225\A10=110.01613218\A11=110.31959912\A12=111.03457749\A1
 4=85.83673773\D3=198.21586264\D4=99.37418075\D5=247.15209968\D6=107.36
 097349\D7=339.59882191\D8=239.16709021\D9=120.2308965\D10=149.56518411
 \D11=119.84830424\D12=240.41501637\D14=175.05124831\R13=1.\R14=1.27866
 \A13=90.\D13=310.8195\\Version=ES64L-G16RevC.01\State=2-A\HF=-691.9928
 053\MP2=-692.3545006\PUHF=-691.9951129\PMP2-0=-692.3546541\S2=0.756008
 \S2-1=0.746928\S2A=0.750027\RMSD=5.423e-09\RMSF=4.375e-03\Dipole=0.292
 6409,0.11018,1.3138815\PG=C01 [X(C4H8Cl1O1)]\\@
 The archive entry for this job was punched.


 ALL MY ATTEMPTS TO ADAPT THE THEORETICAL FOUNDATIONS OF PHYSICS
 TO THESE NEW NOTIONS FAILED COMPLETELY. IT WAS AS IF THE GROUND HAD
 BEEN PULLED OUT FROM UNDER ONE WITH NO FIRM FOUNDATION TO BE SEEN ANYWHERE,
 UPON WHICH ONE COULD HAVE BUILT.  -- A.EINSTEIN
 Job cpu time:       0 days  1 hours 51 minutes 44.7 seconds.
 Elapsed time:       0 days  0 hours 23 minutes 20.3 seconds.
 File lengths (MBytes):  RWF=     70 Int=      0 D2E=      0 Chk=     14 Scr=      1
 Normal termination of Gaussian 16 at Mon Oct  7 11:41:10 2024.
