 Entering Gaussian System, Link 0=g16
 Input=run.inp
 Output=run.out
 Initial command:
 /gpfs/fs1/soft/bebop/software/custom-built/gaussian/16-c.02/g16/l1.exe "/scratch/Gau-1906982.inp" -scrdir="/scratch/"
 Default CPUs for threads: 0-35
 Default is to use a total of  36 processors:
                               36 via shared-memory
                                1 via Linda
 Entering Link 1 = /gpfs/fs1/soft/bebop/software/custom-built/gaussian/16-c.02/g16/l1.exe PID=   1906986.
  
 Copyright (c) 1988-2019, Gaussian, Inc.  All Rights Reserved.
  
 This is part of the Gaussian(R) 16 program.  It is based on
 the Gaussian(R) 09 system (copyright 2009, Gaussian, Inc.),
 the Gaussian(R) 03 system (copyright 2003, Gaussian, Inc.),
 the Gaussian(R) 98 system (copyright 1998, Gaussian, Inc.),
 the Gaussian(R) 94 system (copyright 1995, Gaussian, Inc.),
 the Gaussian 92(TM) system (copyright 1992, Gaussian, Inc.),
 the Gaussian 90(TM) system (copyright 1990, Gaussian, Inc.),
 the Gaussian 88(TM) system (copyright 1988, Gaussian, Inc.),
 the Gaussian 86(TM) system (copyright 1986, Carnegie Mellon
 University), and the Gaussian 82(TM) system (copyright 1983,
 Carnegie Mellon University). Gaussian is a federally registered
 trademark of Gaussian, Inc.
  
 This software contains proprietary and confidential information,
 including trade secrets, belonging to Gaussian, Inc.
  
 This software is provided under written license and may be
 used, copied, transmitted, or stored only in accord with that
 written license.
  
 The following legend is applicable only to US Government
 contracts under FAR:
  
                    RESTRICTED RIGHTS LEGEND
  
 Use, reproduction and disclosure by the US Government is
 subject to restrictions as set forth in subparagraphs (a)
 and (c) of the Commercial Computer Software - Restricted
 Rights clause in FAR 52.227-19.
  
 Gaussian, Inc.
 340 Quinnipiac St., Bldg. 40, Wallingford CT 06492
  
  
 ---------------------------------------------------------------
 Warning -- This program may not be used in any manner that
 competes with the business of Gaussian, Inc. or will provide
 assistance to any competitor of Gaussian, Inc.  The licensee
 of this program is prohibited from giving any competitor of
 Gaussian, Inc. access to this program.  By using this program,
 the user acknowledges that Gaussian, Inc. is engaged in the
 business of creating and licensing software in the field of
 computational chemistry and represents and warrants to the
 licensee that it is not a competitor of Gaussian, Inc. and that
 it will not use this program in any manner prohibited above.
 ---------------------------------------------------------------
  

 Cite this work as:
 Gaussian 16, Revision C.01,
 M. J. Frisch, G. W. Trucks, H. B. Schlegel, G. E. Scuseria, 
 M. A. Robb, J. R. Cheeseman, G. Scalmani, V. Barone, 
 G. A. Petersson, H. Nakatsuji, X. Li, M. Caricato, A. V. Marenich, 
 J. Bloino, B. G. Janesko, R. Gomperts, B. Mennucci, H. P. Hratchian, 
 J. V. Ortiz, A. F. Izmaylov, J. L. Sonnenberg, D. Williams-Young, 
 F. Ding, F. Lipparini, F. Egidi, J. Goings, B. Peng, A. Petrone, 
 T. Henderson, D. Ranasinghe, V. G. Zakrzewski, J. Gao, N. Rega, 
 G. Zheng, W. Liang, M. Hada, M. Ehara, K. Toyota, R. Fukuda, 
 J. Hasegawa, M. Ishida, T. Nakajima, Y. Honda, O. Kitao, H. Nakai, 
 T. Vreven, K. Throssell, J. A. Montgomery, Jr., J. E. Peralta, 
 F. Ogliaro, M. J. Bearpark, J. J. Heyd, E. N. Brothers, K. N. Kudin, 
 V. N. Staroverov, T. A. Keith, R. Kobayashi, J. Normand, 
 K. Raghavachari, A. P. Rendell, J. C. Burant, S. S. Iyengar, 
 J. Tomasi, M. Cossi, J. M. Millam, M. Klene, C. Adamo, R. Cammi, 
 J. W. Ochterski, R. L. Martin, K. Morokuma, O. Farkas, 
 J. B. Foresman, and D. J. Fox, Gaussian, Inc., Wallingford CT, 2019.
 
 ******************************************
 Gaussian 16:  ES64L-G16RevC.01  3-Jul-2019
                 8-Oct-2024 
 ******************************************
 %mem=20GB
 %NProcShared=6
 Will use up to    6 processors via shared memory.
 ---------------------------------------------------------
 #P b2plypd3/cc-pvtz # SCF=(xqc) # POpt=() # int=ultrafine
 ---------------------------------------------------------
 1/10=7,38=1/1,3;
 2/12=2,17=6,18=5,29=3,40=1/2;
 3/5=16,6=1,11=9,25=1,30=1,71=1,74=-60,75=-5/1,2,3;
 4//1;
 5/5=2,8=3,13=1,38=5/2,8;
 8/6=4,10=1/1;
 9/15=2,16=-3/6;
 10/5=1/2;
 6/7=2,8=2,9=2,10=2/1;
 7/12=2,29=1/1,2,3,16;
 1/10=7/3(2);
 2/29=3/2;
 99//99;
 2/29=3/2;
 3/5=16,6=1,11=9,25=1,30=1,71=1,74=-60,75=-5/1,2,3;
 4/5=5,16=3,69=1/1;
 5/5=2,8=3,13=1,38=5/2,8;
 8/6=4,10=1/1;
 9/15=2,16=-3/6;
 10/5=1/2;
 7/12=2/1,2,3,16;
 1//3(-8);
 2/29=3/2;
 6/7=2,8=2,9=2,10=2/1;
 99/9=10/99;
 Leave Link    1 at Tue Oct  8 12:48:44 2024, MaxMem=  2684354560 cpu:               0.4 elap:               0.0
 (Enter /gpfs/fs1/soft/bebop/software/custom-built/gaussian/16-c.02/g16/l101.exe)
 --------
 comment:
 --------
 Symbolic Z-matrix:
 Charge =  0 Multiplicity = 2
 C
 C                    1    R1
 C                    1    R2       2    A2
 H                    1    R3       2    A3       3    D3       0
 O                    3    R4       1    A4       2    D4       0
 C                    3    R5       1    A5       5    D5       0
 H                    3    R6       1    A6       5    D6       0
 H                    2    R7       1    A7       3    D7       0
 H                    2    R8       1    A8       8    D8       0
 H                    2    R9       1    A9       8    D9       0
 H                    6    R10      3    A10      1    D10      0
 H                    6    R11      3    A11      11   D11      0
 H                    6    R12      3    A12      11   D12      0
 X                    7    R13      3    A13      6    D13      0
 Cl                   7    R14      14   A14      3    D14      0
       Variables:
  R1                    1.48687                  
  R2                    1.51082                  
  R3                    1.08226                  
  R4                    1.43409                  
  R5                    1.48687                  
  R6                    1.08226                  
  R7                    1.09412                  
  R8                    1.09463                  
  R9                    1.0942                   
  R10                   1.09463                  
  R11                   1.0942                   
  R12                   1.09412                  
  R14                   1.70357                  
  A2                  123.29351                  
  A3                  112.98948                  
  A4                   58.21365                  
  A5                  123.2935                   
  A6                  118.30757                  
  A7                  112.69874                  
  A8                  109.92711                  
  A9                  110.0899                   
  A10                 109.92711                  
  A11                 110.08992                  
  A12                 112.69872                  
  A14                  90.                       
  D3                  206.50692                  
  D4                  100.49258                  
  D5                  259.50741                  
  D6                  107.32542                  
  D7                  319.47977                  
  D8                  239.97299                  
  D9                  121.07742                  
  D10                 160.54747                  
  D11                 118.89561                  
  D12                 239.973                    
  D14                 180.                       
       Constants:
  R13                   1.                       
  A13                  90.                       
  D13                 310.81953                  
 
 ITRead=  0  0  0  0  0  0  0  0  0  0  0  0  0  0
 MicOpt= -1 -1 -1 -1 -1 -1 -1 -1 -1 -1 -1 -1 -1 -1
 NAtoms=     14 NQM=       14 NQMF=       0 NMMI=      0 NMMIF=      0
                NMic=       0 NMicF=      0.
                    Isotopes and Nuclear Properties:
 (Nuclear quadrupole moments (NQMom) in fm**2, nuclear magnetic moments (NMagM)
  in nuclear magnetons)

  Atom         1           2           3           4           5           6           7           8           9          10
 IAtWgt=          12          12          12           1          16          12           1           1           1           1
 AtmWgt=  12.0000000  12.0000000  12.0000000   1.0078250  15.9949146  12.0000000   1.0078250   1.0078250   1.0078250   1.0078250
 NucSpn=           0           0           0           1           0           0           1           1           1           1
 AtZEff=  -0.0000000  -0.0000000  -0.0000000  -0.0000000  -0.0000000  -0.0000000  -0.0000000  -0.0000000  -0.0000000  -0.0000000
 NQMom=    0.0000000   0.0000000   0.0000000   0.0000000   0.0000000   0.0000000   0.0000000   0.0000000   0.0000000   0.0000000
 NMagM=    0.0000000   0.0000000   0.0000000   2.7928460   0.0000000   0.0000000   2.7928460   2.7928460   2.7928460   2.7928460
 AtZNuc=   6.0000000   6.0000000   6.0000000   1.0000000   8.0000000   6.0000000   1.0000000   1.0000000   1.0000000   1.0000000

  Atom        11          12          13          14
 IAtWgt=           1           1           1          35
 AtmWgt=   1.0078250   1.0078250   1.0078250  34.9688527
 NucSpn=           1           1           1           3
 AtZEff=  -0.0000000  -0.0000000  -0.0000000  -0.0000000
 NQMom=    0.0000000   0.0000000   0.0000000  -8.1650000
 NMagM=    2.7928460   2.7928460   2.7928460   0.8218740
 AtZNuc=   1.0000000   1.0000000   1.0000000  17.0000000
 Leave Link  101 at Tue Oct  8 12:48:44 2024, MaxMem=  2684354560 cpu:               1.6 elap:               0.3
 (Enter /gpfs/fs1/soft/bebop/software/custom-built/gaussian/16-c.02/g16/l103.exe)

 GradGradGradGradGradGradGradGradGradGradGradGradGradGradGradGradGradGrad
 Berny optimization.
 Initialization pass.
                       ----------------------------
                       !    Initial Parameters    !
                       ! (Angstroms and Degrees)  !
 ----------------------                            ----------------------
 !      Name          Value   Derivative information (Atomic Units)     !
 ------------------------------------------------------------------------
 !       R1          1.4869   estimate D2E/DX2                          !
 !       R2          1.5108   estimate D2E/DX2                          !
 !       R3          1.0823   estimate D2E/DX2                          !
 !       R4          1.4341   estimate D2E/DX2                          !
 !       R5          1.4869   estimate D2E/DX2                          !
 !       R6          1.0823   estimate D2E/DX2                          !
 !       R7          1.0941   estimate D2E/DX2                          !
 !       R8          1.0946   estimate D2E/DX2                          !
 !       R9          1.0942   estimate D2E/DX2                          !
 !       R10         1.0946   estimate D2E/DX2                          !
 !       R11         1.0942   estimate D2E/DX2                          !
 !       R12         1.0941   estimate D2E/DX2                          !
 !       R14         1.7036   estimate D2E/DX2                          !
 !       A2        123.2935   estimate D2E/DX2                          !
 !       A3        112.9895   estimate D2E/DX2                          !
 !       A4         58.2136   estimate D2E/DX2                          !
 !       A5        123.2935   estimate D2E/DX2                          !
 !       A6        118.3076   estimate D2E/DX2                          !
 !       A7        112.6987   estimate D2E/DX2                          !
 !       A8        109.9271   estimate D2E/DX2                          !
 !       A9        110.0899   estimate D2E/DX2                          !
 !       A10       109.9271   estimate D2E/DX2                          !
 !       A11       110.0899   estimate D2E/DX2                          !
 !       A12       112.6987   estimate D2E/DX2                          !
 !       A14        90.0      estimate D2E/DX2                          !
 !       D3        206.5069   estimate D2E/DX2                          !
 !       D4        100.4926   estimate D2E/DX2                          !
 !       D5        259.5074   estimate D2E/DX2                          !
 !       D6        107.3254   estimate D2E/DX2                          !
 !       D7        319.4798   estimate D2E/DX2                          !
 !       D8        239.973    estimate D2E/DX2                          !
 !       D9        121.0774   estimate D2E/DX2                          !
 !       D10       160.5475   estimate D2E/DX2                          !
 !       D11       118.8956   estimate D2E/DX2                          !
 !       D12       239.973    estimate D2E/DX2                          !
 !       D14       180.0      estimate D2E/DX2                          !
 !       R13         1.0      Frozen                                    !
 !       A13        90.0      Frozen                                    !
 !       D13       310.8195   Frozen                                    !
 ------------------------------------------------------------------------
 Trust Radius=3.00D-01 FncErr=1.00D-07 GrdErr=1.00D-07 EigMax=2.50D+02 EigMin=1.00D-04
 Number of steps in this run=     49 maximum allowed number of steps=    100.
 GradGradGradGradGradGradGradGradGradGradGradGradGradGradGradGradGradGrad

 Leave Link  103 at Tue Oct  8 12:48:44 2024, MaxMem=  2684354560 cpu:               0.1 elap:               0.0
 (Enter /gpfs/fs1/soft/bebop/software/custom-built/gaussian/16-c.02/g16/l202.exe)
 ---------------------------------------------------------------------------------------------------
                            Z-MATRIX (ANGSTROMS AND DEGREES)
   CD    Cent   Atom    N1       Length/X        N2       Alpha/Y        N3        Beta/Z          J
 ---------------------------------------------------------------------------------------------------
      1      1  C 
      2      2  C        1   1.486874(     1)
      3      3  C        1   1.510820(     2)      2  123.294(    15)
      4      4  H        1   1.082264(     3)      2  112.989(    16)      3  206.507(    28)      0
      5      5  O        3   1.434087(     4)      1   58.214(    17)      2  100.493(    29)      0
      6      6  C        3   1.486874(     5)      1  123.293(    18)      5  259.507(    30)      0
      7      7  H        3   1.082264(     6)      1  118.308(    19)      5  107.325(    31)      0
      8      8  H        2   1.094120(     7)      1  112.699(    20)      3  319.480(    32)      0
      9      9  H        2   1.094627(     8)      1  109.927(    21)      8  239.973(    33)      0
     10     10  H        2   1.094202(     9)      1  110.090(    22)      8  121.077(    34)      0
     11     11  H        6   1.094627(    10)      3  109.927(    23)      1  160.547(    35)      0
     12     12  H        6   1.094203(    11)      3  110.090(    24)     11  118.896(    36)      0
     13     13  H        6   1.094119(    12)      3  112.699(    25)     11  239.973(    37)      0
     14         X        7   1.000000(    13)      3   90.000(    26)      6  310.820(    38)      0
     15     14  Cl       7   1.703571(    14)     14   90.000(    27)      3  180.000(    39)      0
 ---------------------------------------------------------------------------------------------------
                         Z-Matrix orientation:                         
 ---------------------------------------------------------------------
 Center     Atomic      Atomic             Coordinates (Angstroms)
 Number     Number       Type             X           Y           Z
 ---------------------------------------------------------------------
      1          6           0        0.000000    0.000000    0.000000
      2          6           0        0.000000    0.000000    1.486874
      3          6           0        1.262848    0.000000   -0.829332
      4          1           0       -0.891576    0.444658   -0.422691
      5          8           0        0.509568   -1.198617   -0.600220
      6          6           0        2.627300    0.000000   -0.238513
      7          1           0        1.229233    0.444657   -1.815458
      8          1           0        0.767305   -0.655809    1.909079
      9          1           0       -0.970344   -0.342717    1.859950
     10          1           0        0.168595    1.013701    1.862726
     11          1           0        3.355231   -0.342713   -0.980721
     12          1           0        2.905212    1.013701    0.065552
     13          1           0        2.709851   -0.655811    0.633378
     14         -1           0        1.738022    1.235821   -1.476056
     15         17           0        1.176320    1.144583   -3.367701
 ---------------------------------------------------------------------
                    Distance matrix (angstroms):
                    1          2          3          4          5
     1  C    0.000000
     2  C    1.486874   0.000000
     3  C    1.510820   2.638104   0.000000
     4  H    1.082264   2.153849   2.237101   0.000000
     5  O    1.434087   2.460143   1.434087   2.166811   0.000000
     6  C    2.638104   3.143194   1.486874   3.551637   2.460143
     7  H    2.237101   3.551638   1.082264   2.537248   2.166811
     8  H    2.159496   1.094120   2.859116   3.065952   2.580243
     9  H    2.125661   1.094627   3.512383   2.415908   2.995854
    10  H    2.127384   1.094202   3.077686   2.582809   3.328170
    11  H    3.512384   4.179001   2.125661   4.355079   2.995856
    12  H    3.077685   3.389396   2.127385   3.870115   3.328170
    13  H    2.859116   2.915790   2.159496   3.911085   2.580242
    14  X    2.593591   3.650607   1.473532   2.941139   2.864031
    15  Cl   3.746359   5.124519   2.785835   3.665947   3.687017
                    6          7          8          9         10
     6  C    0.000000
     7  H    2.153849   0.000000
     8  H    2.915788   3.911084   0.000000
     9  H    4.179001   4.355080   1.766314   0.000000
    10  H    3.389399   3.870116   1.774222   1.771175   0.000000
    11  H    1.094627   2.415906   3.891830   5.174941   4.481037
    12  H    1.094203   2.582812   3.279711   4.481035   3.273974
    13  H    1.094119   3.065951   2.323984   3.891830   3.279717
    14  X    1.962034   1.000000   3.997461   4.577768   3.695931
    15  Cl   3.634175   1.703571   5.590448   5.843677   5.328227
                   11         12         13         14         15
    11  H    0.000000
    12  H    1.771176   0.000000
    13  H    1.766313   1.774221   0.000000
    14  X    2.313545   1.946337   2.995402   0.000000
    15  Cl   3.557721   3.846222   4.647770   1.975387   0.000000
 Stoichiometry    C4H8ClO(2)
 Framework group  C1[X(C4H8ClO)]
 Deg. of freedom    36
 Full point group                 C1      NOp   1
 Largest Abelian subgroup         C1      NOp   1
 Largest concise Abelian subgroup C1      NOp   1
                         Standard orientation:                         
 ---------------------------------------------------------------------
 Center     Atomic      Atomic             Coordinates (Angstroms)
 Number     Number       Type             X           Y           Z
 ---------------------------------------------------------------------
      1          6           0       -1.171755   -0.790039   -0.087941
      2          6           0       -2.560257   -0.541429   -0.558099
      3          6           0       -0.155929    0.309501    0.116228
      4          1           0       -0.812992   -1.780861   -0.334632
      5          8           0       -0.876252   -0.266864    1.214200
      6          6           0       -0.446876    1.746116   -0.133335
      7          1           0        0.892971    0.065691    0.008246
      8          1           0       -3.006159    0.349293   -0.105458
      9          1           0       -3.197728   -1.395031   -0.306697
     10          1           0       -2.572530   -0.418072   -1.645256
     11          1           0        0.281736    2.371172    0.392629
     12          1           0       -0.371219    1.964654   -1.202820
     13          1           0       -1.443588    2.040635    0.208603
     14         17           0        2.544025   -0.318086   -0.161725
 ---------------------------------------------------------------------
 Rotational constants (GHZ):           4.7866681           1.2695706           1.1552110
 Leave Link  202 at Tue Oct  8 12:48:44 2024, MaxMem=  2684354560 cpu:               0.0 elap:               0.0
 (Enter /gpfs/fs1/soft/bebop/software/custom-built/gaussian/16-c.02/g16/l301.exe)
 Standard basis: CC-pVTZ (5D, 7F)
 Ernie: Thresh=  0.10000D-02 Tol=  0.10000D-05 Strict=F.
 Ernie:  28 primitive shells out of 254 were deleted.
 There are   334 symmetry adapted cartesian basis functions of A   symmetry.
 There are   296 symmetry adapted basis functions of A   symmetry.
   296 basis functions,   490 primitive gaussians,   334 cartesian basis functions
    29 alpha electrons       28 beta electrons
       nuclear repulsion energy       282.1631033016 Hartrees.
 IExCor=  419 DFT=T Ex+Corr=B2PLYPD3 ExCW=0 ScaHFX=  0.530000
 ScaDFX=  0.470000  0.470000  0.730000  0.730000 ScalE2=  0.270000  0.270000
 IRadAn=      5 IRanWt=     -1 IRanGd=            0 ICorTp=0 IEmpDi=141
 NAtoms=   14 NActive=   14 NUniq=   14 SFac= 1.00D+00 NAtFMM=   60 NAOKFM=F Big=F
 Integral buffers will be    131072 words long.
 Regular integral format.
 Two-electron integral symmetry is turned on.
 R6Disp:  Grimme-D3(BJ) Dispersion energy=       -0.0081065551 Hartrees.
 Nuclear repulsion after empirical dispersion term =      282.1549967465 Hartrees.
 Leave Link  301 at Tue Oct  8 12:48:45 2024, MaxMem=  2684354560 cpu:               0.3 elap:               0.1
 (Enter /gpfs/fs1/soft/bebop/software/custom-built/gaussian/16-c.02/g16/l302.exe)
 NPDir=0 NMtPBC=     1 NCelOv=     1 NCel=       1 NClECP=     1 NCelD=      1
         NCelK=      1 NCelE2=     1 NClLst=     1 CellRange=     0.0.
 One-electron integrals computed using PRISM.
 One-electron integral symmetry used in STVInt
 NBasis=   296 RedAO= T EigKep=  2.51D-04  NBF=   296
 NBsUse=   296 1.00D-06 EigRej= -1.00D+00 NBFU=   296
 Precomputing XC quadrature grid using
 IXCGrd= 4 IRadAn=           5 IRanWt=          -1 IRanGd=           0 AccXCQ= 0.00D+00.
 Generated NRdTot=       0 NPtTot=           0 NUsed=           0 NTot=          32
 NSgBfM=   334   334   334   334   334 MxSgAt=    14 MxSgA2=    14.
 Leave Link  302 at Tue Oct  8 12:48:45 2024, MaxMem=  2684354560 cpu:               1.6 elap:               0.3
 (Enter /gpfs/fs1/soft/bebop/software/custom-built/gaussian/16-c.02/g16/l303.exe)
 DipDrv:  MaxL=1.
 Leave Link  303 at Tue Oct  8 12:48:45 2024, MaxMem=  2684354560 cpu:               0.4 elap:               0.1
 (Enter /gpfs/fs1/soft/bebop/software/custom-built/gaussian/16-c.02/g16/l401.exe)
 ExpMin= 1.03D-01 ExpMax= 4.56D+05 ExpMxC= 1.44D+03 IAcc=3 IRadAn=         5 AccDes= 0.00D+00
 Harris functional with IExCor=  419 and IRadAn=       5 diagonalized for initial guess.
 HarFok:  IExCor=  419 AccDes= 0.00D+00 IRadAn=         5 IDoV= 1 UseB2=F ITyADJ=14
 ICtDFT=  3500011 ScaDFX=  1.000000  1.000000  1.000000  1.000000
 FoFCou: FMM=F IPFlag=           0 FMFlag=      100000 FMFlg1=           0
         NFxFlg=           0 DoJE=T BraDBF=F KetDBF=T FulRan=T
         wScrn=  0.000000 ICntrl=       500 IOpCl=  0 I1Cent=   200000004 NGrid=           0
         NMat0=    1 NMatS0=      1 NMatT0=    0 NMatD0=    1 NMtDS0=    0 NMtDT0=    0
 Petite list used in FoFCou.
 Harris En= -692.653412536267    
 JPrj=0 DoOrth=F DoCkMO=F.
 Initial guess <Sx>= 0.0000 <Sy>= 0.0000 <Sz>= 0.5000 <S**2>= 0.7500 S= 0.5000
 Leave Link  401 at Tue Oct  8 12:48:46 2024, MaxMem=  2684354560 cpu:               6.3 elap:               1.1
 (Enter /gpfs/fs1/soft/bebop/software/custom-built/gaussian/16-c.02/g16/l502.exe)
 Keep R1 and R2 ints in memory in canonical form, NReq=1950973320.
 FoFCou: FMM=F IPFlag=           0 FMFlag=           0 FMFlg1=           0
         NFxFlg=           0 DoJE=F BraDBF=F KetDBF=F FulRan=T
         wScrn=  0.000000 ICntrl=       600 IOpCl=  0 I1Cent=           0 NGrid=           0
         NMat0=    1 NMatS0=  43956 NMatT0=    0 NMatD0=    1 NMtDS0=    0 NMtDT0=    0
 Symmetry not used in FoFCou.
 Two-electron integral symmetry not used.
 UHF open shell SCF:
 Using DIIS extrapolation, IDIIS=  1040.
 NGot=  2684354560 LenX=   751952220 LenY=   751840223
 Requested convergence on RMS density matrix=1.00D-08 within  32 cycles.
 Requested convergence on MAX density matrix=1.00D-06.
 Requested convergence on             energy=1.00D-06.
 No special actions if energy rises.
 Integral accuracy reduced to 1.0D-05 until final iterations.

 Cycle   1  Pass 0  IDiag  1:
 E= -691.768081322663    
 DIIS: error= 2.48D-02 at cycle   1 NSaved=   1.
 NSaved= 1 IEnMin= 1 EnMin= -691.768081322663     IErMin= 1 ErrMin= 2.48D-02
 ErrMax= 2.48D-02  0.00D+00 EMaxC= 1.00D-01 BMatC= 1.16D+00 BMatP= 1.16D+00
 IDIUse=3 WtCom= 7.52D-01 WtEn= 2.48D-01
 Coeff-Com:  0.100D+01
 Coeff-En:   0.100D+01
 Coeff:      0.100D+01
 Gap=     0.637 Goal=   None    Shift=    0.000
 Gap=     0.267 Goal=   None    Shift=    0.000
 GapD=    0.267 DampG=1.000 DampE=0.500 DampFc=0.5000 IDamp=-1.
 Damping current iteration by 5.00D-01
 RMSDP=1.78D-03 MaxDP=6.25D-02              OVMax= 2.40D-01

 Cycle   2  Pass 0  IDiag  1:
 E= -691.874056561868     Delta-E=       -0.105975239205 Rises=F Damp=T
 DIIS: error= 8.79D-03 at cycle   2 NSaved=   2.
 NSaved= 2 IEnMin= 2 EnMin= -691.874056561868     IErMin= 2 ErrMin= 8.79D-03
 ErrMax= 8.79D-03  0.00D+00 EMaxC= 1.00D-01 BMatC= 1.20D-01 BMatP= 1.16D+00
 IDIUse=3 WtCom= 9.12D-01 WtEn= 8.79D-02
 Coeff-Com: -0.187D+00 0.119D+01
 Coeff-En:   0.000D+00 0.100D+01
 Coeff:     -0.170D+00 0.117D+01
 Gap=     0.454 Goal=   None    Shift=    0.000
 Gap=     0.243 Goal=   None    Shift=    0.000
 RMSDP=5.16D-04 MaxDP=2.31D-02 DE=-1.06D-01 OVMax= 2.22D-01

 Cycle   3  Pass 0  IDiag  1:
 E= -691.972268697762     Delta-E=       -0.098212135894 Rises=F Damp=F
 DIIS: error= 3.37D-03 at cycle   3 NSaved=   3.
 NSaved= 3 IEnMin= 3 EnMin= -691.972268697762     IErMin= 3 ErrMin= 3.37D-03
 ErrMax= 3.37D-03  0.00D+00 EMaxC= 1.00D-01 BMatC= 3.88D-02 BMatP= 1.20D-01
 IDIUse=3 WtCom= 9.66D-01 WtEn= 3.37D-02
 Coeff-Com: -0.150D+00 0.440D+00 0.710D+00
 Coeff-En:   0.000D+00 0.000D+00 0.100D+01
 Coeff:     -0.145D+00 0.425D+00 0.720D+00
 Gap=     0.427 Goal=   None    Shift=    0.000
 Gap=     0.233 Goal=   None    Shift=    0.000
 RMSDP=2.87D-04 MaxDP=1.23D-02 DE=-9.82D-02 OVMax= 4.52D-02

 Cycle   4  Pass 0  IDiag  1:
 E= -691.978774939586     Delta-E=       -0.006506241824 Rises=F Damp=F
 DIIS: error= 1.88D-03 at cycle   4 NSaved=   4.
 NSaved= 4 IEnMin= 4 EnMin= -691.978774939586     IErMin= 4 ErrMin= 1.88D-03
 ErrMax= 1.88D-03  0.00D+00 EMaxC= 1.00D-01 BMatC= 9.03D-03 BMatP= 3.88D-02
 IDIUse=3 WtCom= 9.81D-01 WtEn= 1.88D-02
 Coeff-Com: -0.620D-01 0.121D+00 0.370D+00 0.571D+00
 Coeff-En:   0.000D+00 0.000D+00 0.779D-01 0.922D+00
 Coeff:     -0.609D-01 0.119D+00 0.365D+00 0.577D+00
 Gap=     0.418 Goal=   None    Shift=    0.000
 Gap=     0.210 Goal=   None    Shift=    0.000
 RMSDP=1.02D-04 MaxDP=4.47D-03 DE=-6.51D-03 OVMax= 2.22D-02

 Cycle   5  Pass 0  IDiag  1:
 E= -691.980600561897     Delta-E=       -0.001825622310 Rises=F Damp=F
 DIIS: error= 5.17D-04 at cycle   5 NSaved=   5.
 NSaved= 5 IEnMin= 5 EnMin= -691.980600561897     IErMin= 5 ErrMin= 5.17D-04
 ErrMax= 5.17D-04  0.00D+00 EMaxC= 1.00D-01 BMatC= 5.43D-04 BMatP= 9.03D-03
 IDIUse=3 WtCom= 9.95D-01 WtEn= 5.17D-03
 Coeff-Com: -0.103D-01 0.108D-01 0.496D-01 0.209D+00 0.741D+00
 Coeff-En:   0.000D+00 0.000D+00 0.000D+00 0.000D+00 0.100D+01
 Coeff:     -0.102D-01 0.108D-01 0.493D-01 0.207D+00 0.743D+00
 Gap=     0.416 Goal=   None    Shift=    0.000
 Gap=     0.212 Goal=   None    Shift=    0.000
 RMSDP=3.46D-05 MaxDP=2.05D-03 DE=-1.83D-03 OVMax= 1.05D-02

 Cycle   6  Pass 0  IDiag  1:
 E= -691.980760903825     Delta-E=       -0.000160341928 Rises=F Damp=F
 DIIS: error= 2.66D-04 at cycle   6 NSaved=   6.
 NSaved= 6 IEnMin= 6 EnMin= -691.980760903825     IErMin= 6 ErrMin= 2.66D-04
 ErrMax= 2.66D-04  0.00D+00 EMaxC= 1.00D-01 BMatC= 8.61D-05 BMatP= 5.43D-04
 IDIUse=3 WtCom= 9.97D-01 WtEn= 2.66D-03
 Coeff-Com:  0.773D-02-0.167D-01-0.648D-01-0.356D-01 0.190D+00 0.919D+00
 Coeff-En:   0.000D+00 0.000D+00 0.000D+00 0.000D+00 0.000D+00 0.100D+01
 Coeff:      0.771D-02-0.167D-01-0.646D-01-0.355D-01 0.190D+00 0.919D+00
 Gap=     0.416 Goal=   None    Shift=    0.000
 Gap=     0.214 Goal=   None    Shift=    0.000
 RMSDP=2.71D-05 MaxDP=1.49D-03 DE=-1.60D-04 OVMax= 7.65D-03

 Cycle   7  Pass 0  IDiag  1:
 E= -691.980817434648     Delta-E=       -0.000056530823 Rises=F Damp=F
 DIIS: error= 9.37D-05 at cycle   7 NSaved=   7.
 NSaved= 7 IEnMin= 7 EnMin= -691.980817434648     IErMin= 7 ErrMin= 9.37D-05
 ErrMax= 9.37D-05  0.00D+00 EMaxC= 1.00D-01 BMatC= 1.68D-05 BMatP= 8.61D-05
 IDIUse=1 WtCom= 1.00D+00 WtEn= 0.00D+00
 Coeff-Com:  0.275D-02-0.339D-02-0.287D-01-0.430D-01-0.103D+00 0.174D+00
 Coeff-Com:  0.100D+01
 Coeff:      0.275D-02-0.339D-02-0.287D-01-0.430D-01-0.103D+00 0.174D+00
 Coeff:      0.100D+01
 Gap=     0.416 Goal=   None    Shift=    0.000
 Gap=     0.214 Goal=   None    Shift=    0.000
 RMSDP=1.63D-05 MaxDP=8.85D-04 DE=-5.65D-05 OVMax= 5.54D-03

 Cycle   8  Pass 0  IDiag  1:
 E= -691.980832937384     Delta-E=       -0.000015502736 Rises=F Damp=F
 DIIS: error= 4.46D-05 at cycle   8 NSaved=   8.
 NSaved= 8 IEnMin= 8 EnMin= -691.980832937384     IErMin= 8 ErrMin= 4.46D-05
 ErrMax= 4.46D-05  0.00D+00 EMaxC= 1.00D-01 BMatC= 3.51D-06 BMatP= 1.68D-05
 IDIUse=1 WtCom= 1.00D+00 WtEn= 0.00D+00
 Coeff-Com: -0.169D-02 0.408D-02 0.698D-02 0.631D-02-0.287D-01-0.173D+00
 Coeff-Com:  0.158D+00 0.103D+01
 Coeff:     -0.169D-02 0.408D-02 0.698D-02 0.631D-02-0.287D-01-0.173D+00
 Coeff:      0.158D+00 0.103D+01
 Gap=     0.415 Goal=   None    Shift=    0.000
 Gap=     0.214 Goal=   None    Shift=    0.000
 RMSDP=7.55D-06 MaxDP=3.52D-04 DE=-1.55D-05 OVMax= 2.47D-03

 Initial convergence to 1.0D-05 achieved.  Increase integral accuracy.
 Cycle   9  Pass 1  IDiag  1:
 E= -691.980838256401     Delta-E=       -0.000005319017 Rises=F Damp=F
 DIIS: error= 2.31D-05 at cycle   1 NSaved=   1.
 NSaved= 1 IEnMin= 1 EnMin= -691.980838256401     IErMin= 1 ErrMin= 2.31D-05
 ErrMax= 2.31D-05  0.00D+00 EMaxC= 1.00D-01 BMatC= 7.88D-07 BMatP= 7.88D-07
 IDIUse=1 WtCom= 1.00D+00 WtEn= 0.00D+00
 Coeff-Com:  0.100D+01
 Coeff:      0.100D+01
 Gap=     0.415 Goal=   None    Shift=    0.000
 Gap=     0.214 Goal=   None    Shift=    0.000
 RMSDP=7.55D-06 MaxDP=3.52D-04 DE=-5.32D-06 OVMax= 5.14D-04

 Cycle  10  Pass 1  IDiag  1:
 E= -691.980838774679     Delta-E=       -0.000000518278 Rises=F Damp=F
 DIIS: error= 2.18D-05 at cycle   2 NSaved=   2.
 NSaved= 2 IEnMin= 2 EnMin= -691.980838774679     IErMin= 2 ErrMin= 2.18D-05
 ErrMax= 2.18D-05  0.00D+00 EMaxC= 1.00D-01 BMatC= 4.47D-07 BMatP= 7.88D-07
 IDIUse=1 WtCom= 1.00D+00 WtEn= 0.00D+00
 Coeff-Com:  0.371D+00 0.629D+00
 Coeff:      0.371D+00 0.629D+00
 Gap=     0.415 Goal=   None    Shift=    0.000
 Gap=     0.214 Goal=   None    Shift=    0.000
 RMSDP=1.24D-06 MaxDP=6.10D-05 DE=-5.18D-07 OVMax= 3.49D-04

 Cycle  11  Pass 1  IDiag  1:
 E= -691.980838999287     Delta-E=       -0.000000224608 Rises=F Damp=F
 DIIS: error= 1.12D-05 at cycle   3 NSaved=   3.
 NSaved= 3 IEnMin= 3 EnMin= -691.980838999287     IErMin= 3 ErrMin= 1.12D-05
 ErrMax= 1.12D-05  0.00D+00 EMaxC= 1.00D-01 BMatC= 1.48D-07 BMatP= 4.47D-07
 IDIUse=1 WtCom= 1.00D+00 WtEn= 0.00D+00
 Coeff-Com: -0.504D+00-0.100D-01 0.151D+01
 Coeff:     -0.504D+00-0.100D-01 0.151D+01
 Gap=     0.415 Goal=   None    Shift=    0.000
 Gap=     0.214 Goal=   None    Shift=    0.000
 RMSDP=2.39D-06 MaxDP=1.62D-04 DE=-2.25D-07 OVMax= 6.56D-04

 Cycle  12  Pass 1  IDiag  1:
 E= -691.980839267223     Delta-E=       -0.000000267936 Rises=F Damp=F
 DIIS: error= 9.03D-06 at cycle   4 NSaved=   4.
 NSaved= 4 IEnMin= 4 EnMin= -691.980839267223     IErMin= 4 ErrMin= 9.03D-06
 ErrMax= 9.03D-06  0.00D+00 EMaxC= 1.00D-01 BMatC= 5.78D-08 BMatP= 1.48D-07
 IDIUse=1 WtCom= 1.00D+00 WtEn= 0.00D+00
 Coeff-Com: -0.377D+00-0.131D+00 0.843D+00 0.665D+00
 Coeff:     -0.377D+00-0.131D+00 0.843D+00 0.665D+00
 Gap=     0.415 Goal=   None    Shift=    0.000
 Gap=     0.214 Goal=   None    Shift=    0.000
 RMSDP=9.95D-07 MaxDP=7.84D-05 DE=-2.68D-07 OVMax= 3.31D-04

 Cycle  13  Pass 1  IDiag  1:
 E= -691.980839337488     Delta-E=       -0.000000070265 Rises=F Damp=F
 DIIS: error= 7.37D-06 at cycle   5 NSaved=   5.
 NSaved= 5 IEnMin= 5 EnMin= -691.980839337488     IErMin= 5 ErrMin= 7.37D-06
 ErrMax= 7.37D-06  0.00D+00 EMaxC= 1.00D-01 BMatC= 1.62D-08 BMatP= 5.78D-08
 IDIUse=1 WtCom= 1.00D+00 WtEn= 0.00D+00
 Coeff-Com:  0.102D+00-0.917D-02-0.351D+00 0.593D-01 0.120D+01
 Coeff:      0.102D+00-0.917D-02-0.351D+00 0.593D-01 0.120D+01
 Gap=     0.415 Goal=   None    Shift=    0.000
 Gap=     0.214 Goal=   None    Shift=    0.000
 RMSDP=9.09D-07 MaxDP=8.33D-05 DE=-7.03D-08 OVMax= 3.77D-04

 Cycle  14  Pass 1  IDiag  1:
 E= -691.980839387059     Delta-E=       -0.000000049571 Rises=F Damp=F
 DIIS: error= 5.75D-06 at cycle   6 NSaved=   6.
 NSaved= 6 IEnMin= 6 EnMin= -691.980839387059     IErMin= 6 ErrMin= 5.75D-06
 ErrMax= 5.75D-06  0.00D+00 EMaxC= 1.00D-01 BMatC= 9.36D-09 BMatP= 1.62D-08
 IDIUse=1 WtCom= 1.00D+00 WtEn= 0.00D+00
 Coeff-Com:  0.249D+00 0.762D-01-0.550D+00-0.388D+00 0.235D+00 0.138D+01
 Coeff:      0.249D+00 0.762D-01-0.550D+00-0.388D+00 0.235D+00 0.138D+01
 Gap=     0.415 Goal=   None    Shift=    0.000
 Gap=     0.214 Goal=   None    Shift=    0.000
 RMSDP=1.02D-06 MaxDP=9.48D-05 DE=-4.96D-08 OVMax= 4.42D-04

 Cycle  15  Pass 1  IDiag  1:
 E= -691.980839428289     Delta-E=       -0.000000041230 Rises=F Damp=F
 DIIS: error= 3.78D-06 at cycle   7 NSaved=   7.
 NSaved= 7 IEnMin= 7 EnMin= -691.980839428289     IErMin= 7 ErrMin= 3.78D-06
 ErrMax= 3.78D-06  0.00D+00 EMaxC= 1.00D-01 BMatC= 4.01D-09 BMatP= 9.36D-09
 IDIUse=1 WtCom= 1.00D+00 WtEn= 0.00D+00
 Coeff-Com: -0.478D-02 0.917D-02 0.828D-01-0.124D+00-0.684D+00 0.180D+00
 Coeff-Com:  0.154D+01
 Coeff:     -0.478D-02 0.917D-02 0.828D-01-0.124D+00-0.684D+00 0.180D+00
 Coeff:      0.154D+01
 Gap=     0.415 Goal=   None    Shift=    0.000
 Gap=     0.214 Goal=   None    Shift=    0.000
 RMSDP=1.19D-06 MaxDP=1.11D-04 DE=-4.12D-08 OVMax= 5.18D-04

 Cycle  16  Pass 1  IDiag  1:
 E= -691.980839454443     Delta-E=       -0.000000026153 Rises=F Damp=F
 DIIS: error= 1.47D-06 at cycle   8 NSaved=   8.
 NSaved= 8 IEnMin= 8 EnMin= -691.980839454443     IErMin= 8 ErrMin= 1.47D-06
 ErrMax= 1.47D-06  0.00D+00 EMaxC= 1.00D-01 BMatC= 1.20D-09 BMatP= 4.01D-09
 IDIUse=1 WtCom= 1.00D+00 WtEn= 0.00D+00
 Coeff-Com: -0.103D+00-0.272D-01 0.262D+00 0.122D+00-0.307D+00-0.546D+00
 Coeff-Com:  0.544D+00 0.106D+01
 Coeff:     -0.103D+00-0.272D-01 0.262D+00 0.122D+00-0.307D+00-0.546D+00
 Coeff:      0.544D+00 0.106D+01
 Gap=     0.415 Goal=   None    Shift=    0.000
 Gap=     0.214 Goal=   None    Shift=    0.000
 RMSDP=5.38D-07 MaxDP=4.88D-05 DE=-2.62D-08 OVMax= 2.30D-04

 Cycle  17  Pass 1  IDiag  1:
 E= -691.980839458741     Delta-E=       -0.000000004298 Rises=F Damp=F
 DIIS: error= 3.33D-07 at cycle   9 NSaved=   9.
 NSaved= 9 IEnMin= 9 EnMin= -691.980839458741     IErMin= 9 ErrMin= 3.33D-07
 ErrMax= 3.33D-07  0.00D+00 EMaxC= 1.00D-01 BMatC= 1.43D-10 BMatP= 1.20D-09
 IDIUse=1 WtCom= 1.00D+00 WtEn= 0.00D+00
 Coeff-Com: -0.140D-01-0.642D-02 0.188D-01 0.450D-01 0.114D+00-0.136D+00
 Coeff-Com: -0.252D+00 0.177D+00 0.105D+01
 Coeff:     -0.140D-01-0.642D-02 0.188D-01 0.450D-01 0.114D+00-0.136D+00
 Coeff:     -0.252D+00 0.177D+00 0.105D+01
 Gap=     0.415 Goal=   None    Shift=    0.000
 Gap=     0.214 Goal=   None    Shift=    0.000
 RMSDP=1.48D-07 MaxDP=1.35D-05 DE=-4.30D-09 OVMax= 6.27D-05

 Cycle  18  Pass 1  IDiag  1:
 E= -691.980839459072     Delta-E=       -0.000000000332 Rises=F Damp=F
 DIIS: error= 9.19D-08 at cycle  10 NSaved=  10.
 NSaved=10 IEnMin=10 EnMin= -691.980839459072     IErMin=10 ErrMin= 9.19D-08
 ErrMax= 9.19D-08  0.00D+00 EMaxC= 1.00D-01 BMatC= 1.84D-11 BMatP= 1.43D-10
 IDIUse=1 WtCom= 1.00D+00 WtEn= 0.00D+00
 Coeff-Com:  0.145D-01 0.463D-02-0.365D-01-0.173D-01 0.312D-01 0.907D-01
 Coeff-Com: -0.700D-01-0.156D+00-0.657D-01 0.120D+01
 Coeff:      0.145D-01 0.463D-02-0.365D-01-0.173D-01 0.312D-01 0.907D-01
 Coeff:     -0.700D-01-0.156D+00-0.657D-01 0.120D+01
 Gap=     0.415 Goal=   None    Shift=    0.000
 Gap=     0.214 Goal=   None    Shift=    0.000
 RMSDP=3.01D-08 MaxDP=2.69D-06 DE=-3.32D-10 OVMax= 1.07D-05

 Cycle  19  Pass 1  IDiag  1:
 E= -691.980839459100     Delta-E=       -0.000000000028 Rises=F Damp=F
 DIIS: error= 4.70D-08 at cycle  11 NSaved=  11.
 NSaved=11 IEnMin=11 EnMin= -691.980839459100     IErMin=11 ErrMin= 4.70D-08
 ErrMax= 4.70D-08  0.00D+00 EMaxC= 1.00D-01 BMatC= 4.17D-12 BMatP= 1.84D-11
 IDIUse=1 WtCom= 1.00D+00 WtEn= 0.00D+00
 Coeff-Com:  0.192D-02 0.127D-02-0.301D-02-0.683D-02-0.207D-01 0.280D-01
 Coeff-Com:  0.301D-01-0.148D-01-0.165D+00-0.365D-01 0.119D+01
 Coeff:      0.192D-02 0.127D-02-0.301D-02-0.683D-02-0.207D-01 0.280D-01
 Coeff:      0.301D-01-0.148D-01-0.165D+00-0.365D-01 0.119D+01
 Gap=     0.415 Goal=   None    Shift=    0.000
 Gap=     0.214 Goal=   None    Shift=    0.000
 RMSDP=1.04D-08 MaxDP=8.14D-07 DE=-2.81D-11 OVMax= 2.02D-06

 Cycle  20  Pass 1  IDiag  1:
 E= -691.980839459105     Delta-E=       -0.000000000004 Rises=F Damp=F
 DIIS: error= 2.75D-08 at cycle  12 NSaved=  12.
 NSaved=12 IEnMin=12 EnMin= -691.980839459105     IErMin=12 ErrMin= 2.75D-08
 ErrMax= 2.75D-08  0.00D+00 EMaxC= 1.00D-01 BMatC= 9.34D-13 BMatP= 4.17D-12
 IDIUse=1 WtCom= 1.00D+00 WtEn= 0.00D+00
 Coeff-Com: -0.308D-02-0.628D-03 0.829D-02 0.205D-02-0.146D-01-0.114D-01
 Coeff-Com:  0.230D-01 0.370D-01-0.389D-01-0.300D+00 0.323D+00 0.975D+00
 Coeff:     -0.308D-02-0.628D-03 0.829D-02 0.205D-02-0.146D-01-0.114D-01
 Coeff:      0.230D-01 0.370D-01-0.389D-01-0.300D+00 0.323D+00 0.975D+00
 Gap=     0.415 Goal=   None    Shift=    0.000
 Gap=     0.214 Goal=   None    Shift=    0.000
 RMSDP=4.63D-09 MaxDP=3.33D-07 DE=-4.43D-12 OVMax= 9.91D-07

 SCF Done:  E(UB2PLYPD3) =  -691.980839459     A.U. after   20 cycles
            NFock= 20  Conv=0.46D-08     -V/T= 2.0026
 <Sx>= 0.0000 <Sy>= 0.0000 <Sz>= 0.5000 <S**2>= 0.7593 S= 0.5046
 <L.S>=  0.00000000000    
 KE= 6.902127073899D+02 PE=-2.199444338486D+03 EE= 5.350957948905D+02
 Annihilation of the first spin contaminant:
 S**2 before annihilation     0.7593,   after     0.7501
 Leave Link  502 at Tue Oct  8 12:50:44 2024, MaxMem=  2684354560 cpu:             306.2 elap:             117.7
 (Enter /gpfs/fs1/soft/bebop/software/custom-built/gaussian/16-c.02/g16/l508.exe)
 QCSCF skips out because SCF is already converged.
 Leave Link  508 at Tue Oct  8 12:50:44 2024, MaxMem=  2684354560 cpu:               0.0 elap:               0.0
 (Enter /gpfs/fs1/soft/bebop/software/custom-built/gaussian/16-c.02/g16/l801.exe)
 DoSCS=T DFT=T ScalE2(SS,OS)=  0.270000  0.270000
 ExpMin= 1.03D-01 ExpMax= 4.56D+05 ExpMxC= 1.44D+03 IAcc=3 IRadAn=         5 AccDes= 0.00D+00
 HarFok:  IExCor=  205 AccDes= 0.00D+00 IRadAn=         5 IDoV=-2 UseB2=F ITyADJ=14
 ICtDFT= 12500011 ScaDFX=  1.000000  1.000000  1.000000  1.000000
 Largest valence mixing into a core orbital is  1.85D-04
 Largest core mixing into a valence orbital is  6.87D-05
 Largest valence mixing into a core orbital is  1.94D-04
 Largest core mixing into a valence orbital is  6.04D-05
 Range of M.O.s used for correlation:    11   296
 NBasis=   296 NAE=    29 NBE=    28 NFC=    10 NFV=     0
 NROrb=    286 NOA=    19 NOB=    18 NVA=   267 NVB=   268
 Leave Link  801 at Tue Oct  8 12:50:45 2024, MaxMem=  2684354560 cpu:               0.6 elap:               0.1
 (Enter /gpfs/fs1/soft/bebop/software/custom-built/gaussian/16-c.02/g16/l906.exe)
 DoSCS=T DFT=T ScalE2(SS,OS)=  0.270000  0.270000
 Frozen-core derivative calculation, NFC=  10 NFV=   0.
 FulOut=F Deriv=T AODrv=T NAtomX=    14
   MMem=          23  MDisk=          19 MDiskD=          19
  W3Min=     5734112 MinDsk=     4243203 NBas6D=         334
 NBas2D=       56620    NTT=       55945    LW2=     3500000
    MDV=  2682938945 MDiskM=       40133 NBas2p=       54559
 Fully direct method using O(ONN) memory.
 IMap=   1   2   3   4   5   6   7   8   9  10  11  12  13  14  15  16  17  18  19  20
 IMap=  21  22  23  24  25  26  27  28  29
 JobTyp=2 Pass  1:  I=  11 to  29 NPSUse=  6 ParTrn=T ParDer=T DoDerP=T.
 IMap=   1   2   3   4   5   6   7   8   9  10  11  12  13  14  15  16  17  18  19  20
 IMap=  21  22  23  24  25  26  27  28
 JobTyp=3 Pass  1:  I=  11 to  28 NPSUse=  6 ParTrn=T ParDer=T DoDerP=T.
 Spin components of T(2) and E(2):
     alpha-alpha T2 =       0.6704205475D-01 E2=     -0.4528350255D-01
     alpha-beta  T2 =       0.3855438801D+00 E2=     -0.2750988183D+00
     beta-beta   T2 =       0.6911242305D-01 E2=     -0.4337484531D-01
 The integrals were generated   2 times.
 (S**2,0)=  0.75932D+00           (S**2,1)=  0.74410D+00
 Scaling Projection term by:   0.270000
 E(PUHF)=      -0.69198457473D+03        E(PMP2)=      -0.69234478425D+03
 E2(B2PLYPD3) =    -0.3637571662D+00 E(B2PLYPD3) =    -0.69234459662528D+03
 Leave Link  906 at Tue Oct  8 12:53:56 2024, MaxMem=  2684354560 cpu:            1144.9 elap:             191.5
 (Enter /gpfs/fs1/soft/bebop/software/custom-built/gaussian/16-c.02/g16/l1002.exe)
 Minotr:  UHF open shell wavefunction.
          Computing MP2/KS-MP2 derivatives.
          Using Z-Vector for PSCF gradient.
          Skipping F1 and S1 gradient terms here.
          IDoAtm=11111111111111
          Frozen-core window.
          Direct CPHF calculation.
          Differentiating once with respect to electric field.
                with respect to dipole field.
          Differentiating once with respect to nuclear coordinates.
          Requested convergence is 1.0D-10 RMS, and 1.0D-09 maximum.
          NewPWx=F KeepS1=T KeepF1=T KeepIn=T MapXYZ=F SortEE=F KeepMc=T.
 Keep R1 and R2 ints in memory in canonical form, NReq=1950975864.
 FoFCou: FMM=F IPFlag=           0 FMFlag=           0 FMFlg1=           0
         NFxFlg=           0 DoJE=F BraDBF=F KetDBF=F FulRan=T
         wScrn=  0.000000 ICntrl=       600 IOpCl=  0 I1Cent=           0 NGrid=           0
         NMat0=    1 NMatS0=  43956 NMatT0=    0 NMatD0=    1 NMtDS0=    0 NMtDT0=    0
 Symmetry not used in FoFCou.
 Two-electron integral symmetry not used.
          MDV=    2684354560 using IRadAn=       5.
          Solving linear equations separately, MaxMat=       0.
          There are     1 degrees of freedom in the 1st order CPHF.  IDoFFX=0 NUNeed=     1.
 LinEq1:  Iter=  0 NonCon=     1 RMS=1.00D-03 Max=8.18D-02 NDo=     1
 AX will form     1 AO Fock derivatives at one time.
 LinEq1:  Iter=  1 NonCon=     1 RMS=3.58D-04 Max=9.54D-03 NDo=     1
 LinEq1:  Iter=  2 NonCon=     1 RMS=2.28D-04 Max=8.79D-03 NDo=     1
 LinEq1:  Iter=  3 NonCon=     1 RMS=1.15D-04 Max=3.36D-03 NDo=     1
 LinEq1:  Iter=  4 NonCon=     1 RMS=3.78D-05 Max=9.35D-04 NDo=     1
 LinEq1:  Iter=  5 NonCon=     1 RMS=1.70D-05 Max=7.79D-04 NDo=     1
 LinEq1:  Iter=  6 NonCon=     1 RMS=9.58D-06 Max=5.98D-04 NDo=     1
 LinEq1:  Iter=  7 NonCon=     1 RMS=4.64D-06 Max=2.45D-04 NDo=     1
 LinEq1:  Iter=  8 NonCon=     1 RMS=2.66D-06 Max=8.58D-05 NDo=     1
 LinEq1:  Iter=  9 NonCon=     1 RMS=1.06D-06 Max=3.15D-05 NDo=     1
 LinEq1:  Iter= 10 NonCon=     1 RMS=4.37D-07 Max=8.85D-06 NDo=     1
 LinEq1:  Iter= 11 NonCon=     1 RMS=1.82D-07 Max=3.06D-06 NDo=     1
 LinEq1:  Iter= 12 NonCon=     1 RMS=8.17D-08 Max=1.20D-06 NDo=     1
 LinEq1:  Iter= 13 NonCon=     1 RMS=3.20D-08 Max=6.73D-07 NDo=     1
 LinEq1:  Iter= 14 NonCon=     1 RMS=8.71D-09 Max=3.80D-07 NDo=     1
 LinEq1:  Iter= 15 NonCon=     1 RMS=2.80D-09 Max=1.61D-07 NDo=     1
 LinEq1:  Iter= 16 NonCon=     1 RMS=1.51D-09 Max=8.11D-08 NDo=     1
 LinEq1:  Iter= 17 NonCon=     1 RMS=7.19D-10 Max=2.41D-08 NDo=     1
 LinEq1:  Iter= 18 NonCon=     1 RMS=2.60D-10 Max=9.17D-09 NDo=     1
 LinEq1:  Iter= 19 NonCon=     1 RMS=8.21D-11 Max=2.10D-09 NDo=     1
 LinEq1:  Iter= 20 NonCon=     0 RMS=3.23D-11 Max=6.20D-10 NDo=     1
 Linear equations converged to 1.000D-10 1.000D-09 after    20 iterations.
 End of Minotr F.D. properties file   721 does not exist.
 End of Minotr F.D. properties file   722 does not exist.
 End of Minotr F.D. properties file   788 does not exist.
 Leave Link 1002 at Tue Oct  8 12:56:22 2024, MaxMem=  2684354560 cpu:             490.1 elap:             145.7
 (Enter /gpfs/fs1/soft/bebop/software/custom-built/gaussian/16-c.02/g16/l601.exe)
 Copying SCF densities to generalized density rwf, IOpCl= 1 IROHF=0.

 **********************************************************************

            Population analysis using the SCF Density.

 **********************************************************************

 Orbital symmetries:
 Alpha Orbitals:
       Occupied  (A) (A) (A) (A) (A) (A) (A) (A) (A) (A) (A) (A)
                 (A) (A) (A) (A) (A) (A) (A) (A) (A) (A) (A) (A)
                 (A) (A) (A) (A) (A)
       Virtual   (A) (A) (A) (A) (A) (A) (A) (A) (A) (A) (A) (A)
                 (A) (A) (A) (A) (A) (A) (A) (A) (A) (A) (A) (A)
                 (A) (A) (A) (A) (A) (A) (A) (A) (A) (A) (A) (A)
                 (A) (A) (A) (A) (A) (A) (A) (A) (A) (A) (A) (A)
                 (A) (A) (A) (A) (A) (A) (A) (A) (A) (A) (A) (A)
                 (A) (A) (A) (A) (A) (A) (A) (A) (A) (A) (A) (A)
                 (A) (A) (A) (A) (A) (A) (A) (A) (A) (A) (A) (A)
                 (A) (A) (A) (A) (A) (A) (A) (A) (A) (A) (A) (A)
                 (A) (A) (A) (A) (A) (A) (A) (A) (A) (A) (A) (A)
                 (A) (A) (A) (A) (A) (A) (A) (A) (A) (A) (A) (A)
                 (A) (A) (A) (A) (A) (A) (A) (A) (A) (A) (A) (A)
                 (A) (A) (A) (A) (A) (A) (A) (A) (A) (A) (A) (A)
                 (A) (A) (A) (A) (A) (A) (A) (A) (A) (A) (A) (A)
                 (A) (A) (A) (A) (A) (A) (A) (A) (A) (A) (A) (A)
                 (A) (A) (A) (A) (A) (A) (A) (A) (A) (A) (A) (A)
                 (A) (A) (A) (A) (A) (A) (A) (A) (A) (A) (A) (A)
                 (A) (A) (A) (A) (A) (A) (A) (A) (A) (A) (A) (A)
                 (A) (A) (A) (A) (A) (A) (A) (A) (A) (A) (A) (A)
                 (A) (A) (A) (A) (A) (A) (A) (A) (A) (A) (A) (A)
                 (A) (A) (A) (A) (A) (A) (A) (A) (A) (A) (A) (A)
                 (A) (A) (A) (A) (A) (A) (A) (A) (A) (A) (A) (A)
                 (A) (A) (A) (A) (A) (A) (A) (A) (A) (A) (A) (A)
                 (A) (A) (A)
 Beta  Orbitals:
       Occupied  (A) (A) (A) (A) (A) (A) (A) (A) (A) (A) (A) (A)
                 (A) (A) (A) (A) (A) (A) (A) (A) (A) (A) (A) (A)
                 (A) (A) (A) (A)
       Virtual   (A) (A) (A) (A) (A) (A) (A) (A) (A) (A) (A) (A)
                 (A) (A) (A) (A) (A) (A) (A) (A) (A) (A) (A) (A)
                 (A) (A) (A) (A) (A) (A) (A) (A) (A) (A) (A) (A)
                 (A) (A) (A) (A) (A) (A) (A) (A) (A) (A) (A) (A)
                 (A) (A) (A) (A) (A) (A) (A) (A) (A) (A) (A) (A)
                 (A) (A) (A) (A) (A) (A) (A) (A) (A) (A) (A) (A)
                 (A) (A) (A) (A) (A) (A) (A) (A) (A) (A) (A) (A)
                 (A) (A) (A) (A) (A) (A) (A) (A) (A) (A) (A) (A)
                 (A) (A) (A) (A) (A) (A) (A) (A) (A) (A) (A) (A)
                 (A) (A) (A) (A) (A) (A) (A) (A) (A) (A) (A) (A)
                 (A) (A) (A) (A) (A) (A) (A) (A) (A) (A) (A) (A)
                 (A) (A) (A) (A) (A) (A) (A) (A) (A) (A) (A) (A)
                 (A) (A) (A) (A) (A) (A) (A) (A) (A) (A) (A) (A)
                 (A) (A) (A) (A) (A) (A) (A) (A) (A) (A) (A) (A)
                 (A) (A) (A) (A) (A) (A) (A) (A) (A) (A) (A) (A)
                 (A) (A) (A) (A) (A) (A) (A) (A) (A) (A) (A) (A)
                 (A) (A) (A) (A) (A) (A) (A) (A) (A) (A) (A) (A)
                 (A) (A) (A) (A) (A) (A) (A) (A) (A) (A) (A) (A)
                 (A) (A) (A) (A) (A) (A) (A) (A) (A) (A) (A) (A)
                 (A) (A) (A) (A) (A) (A) (A) (A) (A) (A) (A) (A)
                 (A) (A) (A) (A) (A) (A) (A) (A) (A) (A) (A) (A)
                 (A) (A) (A) (A) (A) (A) (A) (A) (A) (A) (A) (A)
                 (A) (A) (A) (A)
 The electronic state is 2-A.
 Alpha  occ. eigenvalues -- -102.94341 -19.75727 -10.69999 -10.69001 -10.62585
 Alpha  occ. eigenvalues --  -10.62181  -9.93076  -7.58181  -7.56254  -7.56252
 Alpha  occ. eigenvalues --   -1.23027  -0.94943  -0.88210  -0.87232  -0.74980
 Alpha  occ. eigenvalues --   -0.68806  -0.62141  -0.54292  -0.53676  -0.50702
 Alpha  occ. eigenvalues --   -0.49207  -0.47881  -0.45883  -0.43813  -0.40011
 Alpha  occ. eigenvalues --   -0.39299  -0.39126  -0.36846  -0.34180
 Alpha virt. eigenvalues --    0.07334   0.10065   0.11336   0.12500   0.13506
 Alpha virt. eigenvalues --    0.13984   0.16187   0.17451   0.18763   0.20498
 Alpha virt. eigenvalues --    0.21697   0.25276   0.27127   0.28702   0.30263
 Alpha virt. eigenvalues --    0.32381   0.34145   0.34649   0.38251   0.40118
 Alpha virt. eigenvalues --    0.41177   0.42303   0.43540   0.43869   0.44633
 Alpha virt. eigenvalues --    0.45994   0.49154   0.49885   0.50263   0.51669
 Alpha virt. eigenvalues --    0.51750   0.52113   0.53397   0.54282   0.54709
 Alpha virt. eigenvalues --    0.55132   0.56015   0.57392   0.59445   0.60228
 Alpha virt. eigenvalues --    0.60827   0.63932   0.65450   0.68164   0.73586
 Alpha virt. eigenvalues --    0.78417   0.80807   0.81461   0.83356   0.84778
 Alpha virt. eigenvalues --    0.88443   0.89703   0.90352   0.94713   0.97919
 Alpha virt. eigenvalues --    0.99467   1.01553   1.04476   1.05597   1.06930
 Alpha virt. eigenvalues --    1.08957   1.10200   1.10492   1.10985   1.12773
 Alpha virt. eigenvalues --    1.16075   1.19848   1.20438   1.23764   1.24581
 Alpha virt. eigenvalues --    1.26290   1.27757   1.29018   1.31380   1.35441
 Alpha virt. eigenvalues --    1.35643   1.38765   1.39461   1.41280   1.42110
 Alpha virt. eigenvalues --    1.45363   1.45725   1.49558   1.50787   1.52241
 Alpha virt. eigenvalues --    1.57347   1.59853   1.60749   1.63615   1.64595
 Alpha virt. eigenvalues --    1.74867   1.80322   1.84492   1.89870   1.93511
 Alpha virt. eigenvalues --    2.02417   2.03439   2.04262   2.04973   2.06836
 Alpha virt. eigenvalues --    2.09063   2.13481   2.15229   2.18132   2.18530
 Alpha virt. eigenvalues --    2.21556   2.22171   2.22225   2.26967   2.29625
 Alpha virt. eigenvalues --    2.30728   2.33696   2.35812   2.35974   2.36757
 Alpha virt. eigenvalues --    2.39907   2.43003   2.45859   2.49324   2.50152
 Alpha virt. eigenvalues --    2.53408   2.57944   2.59189   2.60819   2.69180
 Alpha virt. eigenvalues --    2.70167   2.75058   2.76606   2.79602   2.83967
 Alpha virt. eigenvalues --    2.85875   2.88823   2.89174   2.91168   2.91945
 Alpha virt. eigenvalues --    2.92794   2.94837   2.97156   2.99874   3.02168
 Alpha virt. eigenvalues --    3.02724   3.04801   3.06624   3.09432   3.10015
 Alpha virt. eigenvalues --    3.11590   3.14700   3.16344   3.18881   3.19805
 Alpha virt. eigenvalues --    3.21496   3.23654   3.24279   3.27033   3.28325
 Alpha virt. eigenvalues --    3.30576   3.35328   3.35711   3.39680   3.42291
 Alpha virt. eigenvalues --    3.43465   3.45032   3.46619   3.49339   3.51213
 Alpha virt. eigenvalues --    3.52111   3.53107   3.57116   3.59927   3.61297
 Alpha virt. eigenvalues --    3.63453   3.63956   3.66885   3.69684   3.72750
 Alpha virt. eigenvalues --    3.76134   3.79743   3.80380   3.82200   3.85958
 Alpha virt. eigenvalues --    3.88784   3.89427   3.93620   3.94826   3.96848
 Alpha virt. eigenvalues --    3.98453   4.01441   4.03273   4.05004   4.07149
 Alpha virt. eigenvalues --    4.07375   4.10540   4.13277   4.14643   4.14907
 Alpha virt. eigenvalues --    4.15730   4.17456   4.21938   4.24552   4.27031
 Alpha virt. eigenvalues --    4.29651   4.30491   4.34352   4.36547   4.39020
 Alpha virt. eigenvalues --    4.39676   4.44659   4.46172   4.48275   4.51457
 Alpha virt. eigenvalues --    4.52774   4.58586   4.60870   4.68357   4.78678
 Alpha virt. eigenvalues --    4.82450   4.85730   4.89063   4.94622   4.95033
 Alpha virt. eigenvalues --    4.97896   4.99682   5.03011   5.06553   5.08997
 Alpha virt. eigenvalues --    5.12509   5.17292   5.21279   5.23820   5.25881
 Alpha virt. eigenvalues --    5.26393   5.28439   5.29678   5.35716   5.38271
 Alpha virt. eigenvalues --    5.43752   5.45344   5.48490   5.52254   5.52512
 Alpha virt. eigenvalues --    5.54506   5.58463   5.63910   5.64537   5.74471
 Alpha virt. eigenvalues --    5.75840   5.79227   5.94011   5.96298   5.99414
 Alpha virt. eigenvalues --    6.00592   6.08868   6.10638   6.15300   6.22065
 Alpha virt. eigenvalues --    6.32089   6.63940   6.85656   7.03184   7.09636
 Alpha virt. eigenvalues --    7.18503   7.47854  11.05976  11.67624  13.07979
 Alpha virt. eigenvalues --   13.56497  14.24136
  Beta  occ. eigenvalues -- -102.93623 -19.75522 -10.69395 -10.68983 -10.62552
  Beta  occ. eigenvalues --  -10.62186  -9.92375  -7.55867  -7.55866  -7.55440
  Beta  occ. eigenvalues --   -1.22542  -0.89549  -0.87521  -0.86427  -0.73813
  Beta  occ. eigenvalues --   -0.67413  -0.60484  -0.53857  -0.52721  -0.50538
  Beta  occ. eigenvalues --   -0.47949  -0.47528  -0.44159  -0.43461  -0.37979
  Beta  occ. eigenvalues --   -0.37734  -0.36325  -0.34640
  Beta virt. eigenvalues --   -0.13196   0.07381   0.10109   0.11425   0.12586
  Beta virt. eigenvalues --    0.13711   0.14185   0.16312   0.17674   0.19155
  Beta virt. eigenvalues --    0.20628   0.21887   0.25544   0.27289   0.28949
  Beta virt. eigenvalues --    0.30749   0.32674   0.34785   0.35932   0.38971
  Beta virt. eigenvalues --    0.41392   0.41777   0.43074   0.44165   0.45497
  Beta virt. eigenvalues --    0.45587   0.47148   0.49390   0.50410   0.50796
  Beta virt. eigenvalues --    0.51926   0.52308   0.52653   0.54086   0.54649
  Beta virt. eigenvalues --    0.55066   0.55490   0.56803   0.57761   0.59839
  Beta virt. eigenvalues --    0.60599   0.61264   0.64673   0.67178   0.68415
  Beta virt. eigenvalues --    0.74079   0.79804   0.81180   0.83159   0.83639
  Beta virt. eigenvalues --    0.84984   0.88883   0.89907   0.90470   0.94861
  Beta virt. eigenvalues --    0.98194   0.99535   1.01751   1.04599   1.05685
  Beta virt. eigenvalues --    1.07107   1.09270   1.10307   1.10693   1.11409
  Beta virt. eigenvalues --    1.13474   1.16248   1.20008   1.20552   1.23847
  Beta virt. eigenvalues --    1.24751   1.26391   1.27804   1.29148   1.31812
  Beta virt. eigenvalues --    1.35527   1.35721   1.38834   1.39726   1.41448
  Beta virt. eigenvalues --    1.42349   1.45480   1.45907   1.49661   1.50933
  Beta virt. eigenvalues --    1.52345   1.57404   1.60261   1.60845   1.63784
  Beta virt. eigenvalues --    1.64762   1.75314   1.81180   1.84781   1.91517
  Beta virt. eigenvalues --    1.94722   2.02974   2.03833   2.04607   2.07066
  Beta virt. eigenvalues --    2.08920   2.11874   2.14826   2.17196   2.20376
  Beta virt. eigenvalues --    2.21068   2.22252   2.22289   2.22781   2.27931
  Beta virt. eigenvalues --    2.30575   2.31154   2.35691   2.37176   2.37292
  Beta virt. eigenvalues --    2.38239   2.40453   2.43618   2.46536   2.50155
  Beta virt. eigenvalues --    2.50300   2.53893   2.58255   2.59649   2.61218
  Beta virt. eigenvalues --    2.69390   2.70259   2.75203   2.76902   2.79781
  Beta virt. eigenvalues --    2.84329   2.86063   2.88915   2.89418   2.91251
  Beta virt. eigenvalues --    2.92056   2.93057   2.94967   2.97259   3.00305
  Beta virt. eigenvalues --    3.02393   3.03193   3.05046   3.06983   3.09654
  Beta virt. eigenvalues --    3.10254   3.12051   3.14972   3.16530   3.19017
  Beta virt. eigenvalues --    3.20152   3.22083   3.23795   3.24670   3.27332
  Beta virt. eigenvalues --    3.28599   3.30933   3.35660   3.36111   3.39849
  Beta virt. eigenvalues --    3.42516   3.43617   3.45146   3.46760   3.49552
  Beta virt. eigenvalues --    3.51286   3.52189   3.53316   3.57276   3.60210
  Beta virt. eigenvalues --    3.61367   3.63650   3.64131   3.66967   3.69839
  Beta virt. eigenvalues --    3.72989   3.76268   3.79877   3.80518   3.82424
  Beta virt. eigenvalues --    3.86030   3.88829   3.89780   3.93781   3.94776
  Beta virt. eigenvalues --    3.96880   3.98548   4.01554   4.03245   4.05051
  Beta virt. eigenvalues --    4.07187   4.07419   4.10710   4.13393   4.14614
  Beta virt. eigenvalues --    4.14963   4.15744   4.17522   4.21988   4.24598
  Beta virt. eigenvalues --    4.27190   4.29748   4.30542   4.34448   4.36463
  Beta virt. eigenvalues --    4.39009   4.39867   4.44709   4.46199   4.48341
  Beta virt. eigenvalues --    4.51538   4.52883   4.58783   4.60934   4.68607
  Beta virt. eigenvalues --    4.78901   4.82675   4.85953   4.89217   4.94737
  Beta virt. eigenvalues --    4.95150   4.98156   4.99777   5.03215   5.06653
  Beta virt. eigenvalues --    5.09098   5.12666   5.17545   5.21390   5.23942
  Beta virt. eigenvalues --    5.26032   5.26486   5.28529   5.29834   5.35968
  Beta virt. eigenvalues --    5.38377   5.44010   5.45444   5.48677   5.52362
  Beta virt. eigenvalues --    5.52658   5.54808   5.58683   5.64176   5.64718
  Beta virt. eigenvalues --    5.74703   5.76128   5.79458   5.94195   5.96745
  Beta virt. eigenvalues --    5.99695   6.00960   6.09119   6.10791   6.15391
  Beta virt. eigenvalues --    6.22376   6.32441   6.64088   6.86154   7.03698
  Beta virt. eigenvalues --    7.10100   7.18686   7.47962  11.06241  11.67765
  Beta virt. eigenvalues --   13.08325  13.56536  14.24176
          Condensed to atoms (all electrons):
               1          2          3          4          5          6
     1  C    4.744099   0.340481   0.355621   0.426400   0.213771  -0.040208
     2  C    0.340481   4.852695  -0.035518  -0.047712  -0.036056   0.001641
     3  C    0.355621  -0.035518   4.948982  -0.030027   0.198141   0.333080
     4  H    0.426400  -0.047712  -0.030027   0.545055  -0.017748   0.001733
     5  O    0.213771  -0.036056   0.198141  -0.017748   7.988428  -0.026968
     6  C   -0.040208   0.001641   0.333080   0.001733  -0.026968   4.821839
     7  H   -0.007566   0.001768   0.378889  -0.002988  -0.003470  -0.021357
     8  H   -0.034354   0.405438   0.000785   0.005476   0.003723  -0.003537
     9  H   -0.034724   0.411392   0.007510  -0.008482  -0.001743  -0.000277
    10  H   -0.039650   0.399543  -0.005054   0.002932   0.005250   0.000085
    11  H    0.006586  -0.000219  -0.034131  -0.000245  -0.002047   0.406375
    12  H   -0.003458  -0.000807  -0.041746   0.000669   0.005419   0.403487
    13  H    0.001507  -0.003978  -0.035556   0.000140   0.003255   0.408244
    14  Cl  -0.000079  -0.000031  -0.050678   0.002975  -0.000679   0.000251
               7          8          9         10         11         12
     1  C   -0.007566  -0.034354  -0.034724  -0.039650   0.006586  -0.003458
     2  C    0.001768   0.405438   0.411392   0.399543  -0.000219  -0.000807
     3  C    0.378889   0.000785   0.007510  -0.005054  -0.034131  -0.041746
     4  H   -0.002988   0.005476  -0.008482   0.002932  -0.000245   0.000669
     5  O   -0.003470   0.003723  -0.001743   0.005250  -0.002047   0.005419
     6  C   -0.021357  -0.003537  -0.000277   0.000085   0.406375   0.403487
     7  H    0.394767   0.000067   0.000065  -0.000374  -0.002621   0.000078
     8  H    0.000067   0.568292  -0.027414  -0.025816   0.000032   0.000574
     9  H    0.000065  -0.027414   0.571388  -0.028619   0.000046  -0.000117
    10  H   -0.000374  -0.025816  -0.028619   0.591242  -0.000106   0.000027
    11  H   -0.002621   0.000032   0.000046  -0.000106   0.562242  -0.026886
    12  H    0.000078   0.000574  -0.000117   0.000027  -0.026886   0.586213
    13  H    0.002068   0.000694   0.000065   0.000485  -0.026959  -0.027310
    14  Cl   0.063402  -0.000003  -0.000008   0.000028   0.001656   0.000814
              13         14
     1  C    0.001507  -0.000079
     2  C   -0.003978  -0.000031
     3  C   -0.035556  -0.050678
     4  H    0.000140   0.002975
     5  O    0.003255  -0.000679
     6  C    0.408244   0.000251
     7  H    0.002068   0.063402
     8  H    0.000694  -0.000003
     9  H    0.000065  -0.000008
    10  H    0.000485   0.000028
    11  H   -0.026959   0.001656
    12  H   -0.027310   0.000814
    13  H    0.568209   0.000077
    14  Cl   0.000077  17.125709
          Atomic-Atomic Spin Densities.
               1          2          3          4          5          6
     1  C    0.012741  -0.000247  -0.012733   0.000909   0.000168   0.004991
     2  C   -0.000247  -0.004992   0.000603   0.000814   0.001309  -0.000494
     3  C   -0.012733   0.000603   0.261079   0.002089  -0.023605  -0.009879
     4  H    0.000909   0.000814   0.002089  -0.005169  -0.000017   0.000040
     5  O    0.000168   0.001309  -0.023605  -0.000017   0.070277  -0.000907
     6  C    0.004991  -0.000494  -0.009879   0.000040  -0.000907   0.013616
     7  H   -0.003124   0.000011   0.054928  -0.000239  -0.002018  -0.003004
     8  H   -0.000081   0.000283  -0.000113  -0.000048  -0.000041   0.000043
     9  H   -0.000541   0.000672   0.000131   0.000177  -0.000356   0.000050
    10  H   -0.000481   0.000755  -0.000425  -0.000252   0.000172  -0.000090
    11  H    0.000446  -0.000009  -0.003404   0.000010  -0.000109   0.002846
    12  H   -0.000459   0.000074   0.001300  -0.000039   0.000003  -0.000240
    13  H   -0.001186   0.000094  -0.000636  -0.000016   0.001361  -0.000056
    14  Cl   0.006285  -0.000084  -0.071854  -0.000429   0.003836   0.006637
               7          8          9         10         11         12
     1  C   -0.003124  -0.000081  -0.000541  -0.000481   0.000446  -0.000459
     2  C    0.000011   0.000283   0.000672   0.000755  -0.000009   0.000074
     3  C    0.054928  -0.000113   0.000131  -0.000425  -0.003404   0.001300
     4  H   -0.000239  -0.000048   0.000177  -0.000252   0.000010  -0.000039
     5  O   -0.002018  -0.000041  -0.000356   0.000172  -0.000109   0.000003
     6  C   -0.003004   0.000043   0.000050  -0.000090   0.002846  -0.000240
     7  H   -0.029929   0.000016  -0.000002   0.000021  -0.000350  -0.000028
     8  H    0.000016  -0.000057  -0.000052  -0.000012  -0.000014   0.000004
     9  H   -0.000002  -0.000052   0.002400  -0.000729   0.000005  -0.000007
    10  H    0.000021  -0.000012  -0.000729   0.002233  -0.000021   0.000052
    11  H   -0.000350  -0.000014   0.000005  -0.000021   0.003583  -0.000628
    12  H   -0.000028   0.000004  -0.000007   0.000052  -0.000628   0.000130
    13  H    0.000198   0.000086  -0.000079   0.000217  -0.001705   0.000666
    14  Cl  -0.065113  -0.000014   0.000020  -0.000070   0.001823  -0.000683
              13         14
     1  C   -0.001186   0.006285
     2  C    0.000094  -0.000084
     3  C   -0.000636  -0.071854
     4  H   -0.000016  -0.000429
     5  O    0.001361   0.003836
     6  C   -0.000056   0.006637
     7  H    0.000198  -0.065113
     8  H    0.000086  -0.000014
     9  H   -0.000079   0.000020
    10  H    0.000217  -0.000070
    11  H   -0.001705   0.001823
    12  H    0.000666  -0.000683
    13  H    0.011145  -0.000559
    14  Cl  -0.000559   0.889218
 Mulliken charges and spin densities:
               1          2
     1  C    0.071574   0.006689
     2  C   -0.288635  -0.001211
     3  C    0.009702   0.197480
     4  H    0.121823  -0.002169
     5  O   -0.329277   0.050073
     6  C   -0.284389   0.013553
     7  H    0.197272  -0.048634
     8  H    0.106043  -0.000001
     9  H    0.110919   0.001689
    10  H    0.100026   0.001371
    11  H    0.116276   0.002473
    12  H    0.103043   0.000144
    13  H    0.109059   0.009530
    14  Cl  -0.143435   0.769014
 Sum of Mulliken charges =  -0.00000   1.00000
 Mulliken charges and spin densities with hydrogens summed into heavy atoms:
               1          2
     1  C    0.193396   0.004520
     2  C    0.028352   0.001848
     3  C    0.206974   0.148846
     5  O   -0.329277   0.050073
     6  C    0.043989   0.025699
    14  Cl  -0.143435   0.769014
 Electronic spatial extent (au):  <R**2>=           1026.2022
 Charge=             -0.0000 electrons
 Dipole moment (field-independent basis, Debye):
    X=             -1.9729    Y=              0.5644    Z=             -1.7662  Tot=              2.7075
 Quadrupole moment (field-independent basis, Debye-Ang):
   XX=            -44.9264   YY=            -41.8379   ZZ=            -47.7698
   XY=              0.8470   XZ=              2.1514   YZ=              1.0197
 Traceless Quadrupole moment (field-independent basis, Debye-Ang):
   XX=             -0.0817   YY=              3.0068   ZZ=             -2.9251
   XY=              0.8470   XZ=              2.1514   YZ=              1.0197
 Octapole moment (field-independent basis, Debye-Ang**2):
  XXX=             -1.9986  YYY=             -2.4282  ZZZ=             -1.5700  XYY=             -1.9638
  XXY=             -2.9652  XXZ=             -0.0762  XZZ=              3.2898  YZZ=              1.0536
  YYZ=              1.5099  XYZ=             -0.4414
 Hexadecapole moment (field-independent basis, Debye-Ang**3):
 XXXX=           -919.1678 YYYY=           -259.8140 ZZZZ=           -131.0712 XXXY=             -6.2186
 XXXZ=             -9.7964 YYYX=              2.1688 YYYZ=              1.7734 ZZZX=              1.0770
 ZZZY=             -0.7000 XXYY=           -197.4513 XXZZ=           -185.8957 YYZZ=            -65.9214
 XXYZ=              1.8482 YYXZ=             -2.1488 ZZXY=             -0.7944
 N-N= 2.821549967465D+02 E-N=-2.199444337735D+03  KE= 6.902127073899D+02
                          Isotropic Fermi Contact Couplings
        Atom                 a.u.       MegaHertz       Gauss      10(-4) cm-1
     1  C(13)              0.00150       1.69009       0.60307       0.56375
     2  C(13)             -0.00371      -4.17429      -1.48949      -1.39239
     3  C(13)              0.09482     106.59653      38.03629      35.55678
     4  H(1)              -0.00103      -4.58950      -1.63765      -1.53089
     5  O(17)              0.01633      -9.89905      -3.53223      -3.30197
     6  C(13)              0.00942      10.58466       3.77687       3.53066
     7  H(1)               0.01541      68.88500      24.57988      22.97756
     8  H(1)               0.00004       0.18727       0.06682       0.06247
     9  H(1)               0.00109       4.87338       1.73894       1.62558
    10  H(1)               0.00127       5.68903       2.02999       1.89766
    11  H(1)               0.00148       6.62749       2.36485       2.21069
    12  H(1)               0.00026       1.14437       0.40834       0.38172
    13  H(1)               0.00438      19.58827       6.98958       6.53394
    14  Cl(35)             0.14550      63.79667      22.76424      21.28028
 --------------------------------------------------------
       Center         ----  Spin Dipole Couplings  ----
                      3XX-RR        3YY-RR        3ZZ-RR
 --------------------------------------------------------
     1   Atom        0.003171      0.002791     -0.005962
     2   Atom        0.003451     -0.002923     -0.000529
     3   Atom        0.311380     -0.142049     -0.169331
     4   Atom        0.000235      0.003979     -0.004214
     5   Atom        0.259164     -0.072196     -0.186968
     6   Atom       -0.012498      0.033428     -0.020930
     7   Atom        0.146725     -0.071091     -0.075634
     8   Atom        0.004227     -0.002100     -0.002127
     9   Atom        0.001881     -0.000360     -0.001521
    10   Atom        0.001728     -0.001815      0.000087
    11   Atom       -0.002838      0.009306     -0.006468
    12   Atom       -0.002412      0.001594      0.000819
    13   Atom        0.002208      0.001497     -0.003705
    14   Atom        3.946947     -1.853680     -2.093267
 --------------------------------------------------------
                        XY            XZ            YZ
 --------------------------------------------------------
     1   Atom        0.018282     -0.008910     -0.010403
     2   Atom        0.002115     -0.000750      0.000807
     3   Atom       -0.141727      0.050178     -0.013920
     4   Atom        0.004207      0.000566      0.003499
     5   Atom       -0.278026      0.141120     -0.065146
     6   Atom       -0.023826      0.007860     -0.015493
     7   Atom       -0.050829     -0.034867      0.008444
     8   Atom       -0.000337      0.001329     -0.000255
     9   Atom        0.001640      0.000819      0.000472
    10   Atom        0.000612      0.002542      0.000418
    11   Atom       -0.000033     -0.000016      0.002852
    12   Atom       -0.003876      0.000518     -0.005185
    13   Atom       -0.004235     -0.002525     -0.001076
    14   Atom       -1.382799     -0.672445      0.152763
 --------------------------------------------------------


 ---------------------------------------------------------------------------------
              Anisotropic Spin Dipole Couplings in Principal Axis System
 ---------------------------------------------------------------------------------

       Atom             a.u.   MegaHertz   Gauss  10(-4) cm-1        Axes

              Baa    -0.0156    -2.091    -0.746    -0.697 -0.6173  0.7496  0.2388
     1 C(13)  Bbb    -0.0114    -1.523    -0.544    -0.508  0.4444  0.0817  0.8921
              Bcc     0.0269     3.614     1.290     1.206  0.6492  0.6569 -0.3836
 
              Baa    -0.0039    -0.518    -0.185    -0.173 -0.2934  0.9118 -0.2872
     2 C(13)  Bbb    -0.0003    -0.038    -0.014    -0.013  0.0181  0.3057  0.9520
              Bcc     0.0041     0.556     0.198     0.185  0.9558  0.2741 -0.1061
 
              Baa    -0.1827   -24.520    -8.749    -8.179  0.2804  0.9583 -0.0545
     3 C(13)  Bbb    -0.1745   -23.410    -8.353    -7.809 -0.0794  0.0798  0.9936
              Bcc     0.3572    47.931    17.103    15.988  0.9566 -0.2743  0.0984
 
              Baa    -0.0057    -3.041    -1.085    -1.015  0.2065 -0.4108  0.8881
     4 H(1)   Bbb    -0.0019    -1.022    -0.365    -0.341  0.8455 -0.3819 -0.3732
              Bcc     0.0076     4.063     1.450     1.355  0.4925  0.8279  0.2684
 
              Baa    -0.2403    17.388     6.205     5.800  0.5106  0.6093 -0.6067
     5 O(17)  Bbb    -0.2142    15.502     5.531     5.171  0.1459  0.6339  0.7595
              Bcc     0.4545   -32.890   -11.736   -10.971  0.8474 -0.4763  0.2348
 
              Baa    -0.0257    -3.450    -1.231    -1.151 -0.4073  0.0744  0.9103
     6 C(13)  Bbb    -0.0222    -2.980    -1.063    -0.994  0.8291  0.4482  0.3343
              Bcc     0.0479     6.430     2.295     2.145 -0.3831  0.8909 -0.2442
 
              Baa    -0.0827   -44.100   -15.736   -14.710  0.1444  0.9132 -0.3811
     7 H(1)   Bbb    -0.0807   -43.075   -15.370   -14.368  0.2173  0.3465  0.9126
              Bcc     0.1634    87.175    31.106    29.078  0.9654 -0.2146 -0.1484
 
              Baa    -0.0025    -1.326    -0.473    -0.442 -0.1518  0.4484  0.8808
     8 H(1)   Bbb    -0.0020    -1.083    -0.386    -0.361  0.1394  0.8920 -0.4301
              Bcc     0.0045     2.409     0.860     0.804  0.9785 -0.0575  0.1979
 
              Baa    -0.0017    -0.920    -0.328    -0.307 -0.1503 -0.1573  0.9760
     9 H(1)   Bbb    -0.0012    -0.653    -0.233    -0.218 -0.4799  0.8748  0.0671
              Bcc     0.0029     1.572     0.561     0.524  0.8643  0.4583  0.2070
 
              Baa    -0.0019    -1.023    -0.365    -0.341 -0.1895  0.9812  0.0356
    10 H(1)   Bbb    -0.0018    -0.939    -0.335    -0.313 -0.5671 -0.1390  0.8118
              Bcc     0.0037     1.963     0.700     0.655  0.8015  0.1336  0.5828
 
              Baa    -0.0070    -3.718    -1.327    -1.240  0.0024 -0.1726  0.9850
    11 H(1)   Bbb    -0.0028    -1.514    -0.540    -0.505  1.0000  0.0032 -0.0019
              Bcc     0.0098     5.232     1.867     1.745 -0.0028  0.9850  0.1726
 
              Baa    -0.0059    -3.151    -1.124    -1.051  0.6374  0.6331  0.4392
    12 H(1)   Bbb    -0.0016    -0.843    -0.301    -0.281  0.7012 -0.2404 -0.6712
              Bcc     0.0075     3.993     1.425     1.332 -0.3194  0.7358 -0.5972
 
              Baa    -0.0057    -3.044    -1.086    -1.015  0.4631  0.3911  0.7953
    13 H(1)   Bbb    -0.0005    -0.286    -0.102    -0.095  0.4658  0.6560 -0.5939
              Bcc     0.0062     3.330     1.188     1.111  0.7540 -0.6455 -0.1216
 
              Baa    -2.1676  -113.448   -40.481   -37.842 -0.0162 -0.4943  0.8691
    14 Cl(35) Bbb    -2.1661  -113.369   -40.453   -37.816  0.2434  0.8412  0.4829
              Bcc     4.3337   226.816    80.934    75.658  0.9698 -0.2194 -0.1067
 

 ---------------------------------------------------------------------------------

 No NMR shielding tensors so no spin-rotation constants.
 Leave Link  601 at Tue Oct  8 12:56:23 2024, MaxMem=  2684354560 cpu:               1.3 elap:               0.3
 (Enter /gpfs/fs1/soft/bebop/software/custom-built/gaussian/16-c.02/g16/l701.exe)
 ... and contract with generalized density number  2.
 Compute integral first derivatives.
 R6Disp: Adding Grimme-D3(BJ) dispersion energy 1st derivatives to the gradient.
 Leave Link  701 at Tue Oct  8 12:56:24 2024, MaxMem=  2684354560 cpu:               0.9 elap:               0.2
 (Enter /gpfs/fs1/soft/bebop/software/custom-built/gaussian/16-c.02/g16/l702.exe)
 L702 exits ... SP integral derivatives will be done elsewhere.
 Leave Link  702 at Tue Oct  8 12:56:24 2024, MaxMem=  2684354560 cpu:               0.1 elap:               0.0
 (Enter /gpfs/fs1/soft/bebop/software/custom-built/gaussian/16-c.02/g16/l703.exe)
 Integral derivatives from FoFJK, PRISM(SPDF).
 Compute integral first derivatives, UseDBF=F ICtDFT=           0.
 Calling FoFJK, ICntrl=  10002127 FMM=F ISym2X=0 I1Cent= 0 IOpClX= 1 NMat=1 NMatS=1 NMatT=0.
 FoFJK:  IHMeth= 1 ICntrl=10002127 DoSepK=F KAlg= 0 I1Cent=           0 FoldK=F
 IRaf=         0 NMat=       1 IRICut=       1 DoRegI=T DoRafI=F ISym2E= 0 IDoP0=0 IntGTp=1.
 FoFCou: FMM=F IPFlag=           0 FMFlag=      100000 FMFlg1=         800
         NFxFlg=           0 DoJE=F BraDBF=F KetDBF=F FulRan=T
         wScrn=  0.000000 ICntrl=  10002127 IOpCl=  1 I1Cent=           0 NGrid=           0
         NMat0=    1 NMatS0=      1 NMatT0=    0 NMatD0=    1 NMtDS0=    0 NMtDT0=    0
 Symmetry not used in FoFCou.
 Leave Link  703 at Tue Oct  8 12:56:43 2024, MaxMem=  2684354560 cpu:             113.6 elap:              19.0
 (Enter /gpfs/fs1/soft/bebop/software/custom-built/gaussian/16-c.02/g16/l716.exe)
 Dipole        =-1.06754116D+00 2.58769847D-01-6.03575189D-01
 ***** Axes restored to original set *****
 -------------------------------------------------------------------
 Center     Atomic                   Forces (Hartrees/Bohr)
 Number     Number              X              Y              Z
 -------------------------------------------------------------------
      1        6           0.020712413    0.005689666   -0.008270632
      2        6           0.001527128    0.002141843    0.013419444
      3        6          -0.024832458   -0.035028171    0.073451323
      4        1          -0.000130341   -0.004388619   -0.009252512
      5        8           0.000077899    0.008673831   -0.021484268
      6        6           0.017104367    0.004444402   -0.000759258
      7        1          -0.007821378    0.008598711   -0.027544233
      8        1          -0.002409594    0.003333999   -0.003931034
      9        1           0.002885022    0.001415879   -0.000891418
     10        1          -0.001715953   -0.002055451    0.000611449
     11        1          -0.001324844    0.001488984    0.002788404
     12        1           0.000544852   -0.002118797   -0.002252407
     13        1          -0.004585604    0.002605972   -0.004695583
     14       17          -0.000031510    0.005197750   -0.011189274
 -------------------------------------------------------------------
 Cartesian Forces:  Max     0.073451323 RMS     0.015490873
 -----------------------------------------------------------------------------------------------
                       Internal Coordinate Forces (Hartree/Bohr or radian)
  Cent   Atom   N1       Length/X         N2         Alpha/Y        N3         Beta/Z          J
 -----------------------------------------------------------------------------------------------
      1  C 
      2  C        1   0.009208(     1)
      3  C        1  -0.022008(     2)      2   0.011946(    15)
      4  H        1   0.001918(     3)      2   0.018891(    16)      3  -0.007504(    28)     0
      5  O        3  -0.010723(     4)      1   0.019799(    17)      2   0.023268(    29)     0
      6  C        3   0.008818(     5)      1   0.018485(    18)      5  -0.012730(    30)     0
      7  H        3   0.041205(     6)      1  -0.010267(    19)      5  -0.008220(    31)     0
      8  H        2  -0.005205(     7)      1  -0.004309(    20)      3   0.003753(    32)     0
      9  H        2  -0.003305(     8)      1   0.000517(    21)      8  -0.000728(    33)     0
     10  H        2  -0.001959(     9)      1   0.002827(    22)      8   0.002632(    34)     0
     11  H        6  -0.003238(    10)      3   0.002191(    23)      1  -0.003664(    35)     0
     12  H        6  -0.002450(    11)      3   0.000983(    24)     11  -0.003699(    36)     0
     13  H        6  -0.005650(    12)      3  -0.008726(    25)     11  -0.000697(    37)     0
         X        7  -0.000000(    13)      3  -0.000961(    26)      6  -0.000000(    38)     0
     14  Cl       7   0.012332(    14)     14  -0.000961(    27)      3   0.000747(    39)     0
 -----------------------------------------------------------------------------------------------
 Internal  Forces:  Max     0.041205112 RMS     0.011358974
 Force constants in internal coordinates: 
                1             2             3             4             5 
      1  0.337944D+00
      2  0.000000D+00  0.484263D+00
      3  0.000000D+00  0.000000D+00  0.357222D+00
      4  0.000000D+00  0.320870D-01  0.000000D+00  0.550112D+00
      5  0.000000D+00  0.000000D+00  0.000000D+00  0.000000D+00  0.337944D+00
      6  0.000000D+00  0.000000D+00  0.000000D+00  0.000000D+00  0.000000D+00
      7  0.000000D+00  0.000000D+00  0.000000D+00  0.000000D+00  0.000000D+00
      8  0.000000D+00  0.000000D+00  0.000000D+00  0.000000D+00  0.000000D+00
      9  0.000000D+00  0.000000D+00  0.000000D+00  0.000000D+00  0.000000D+00
     10  0.000000D+00  0.000000D+00  0.000000D+00  0.000000D+00  0.000000D+00
     11  0.000000D+00  0.000000D+00  0.000000D+00  0.000000D+00  0.000000D+00
     12  0.000000D+00  0.000000D+00  0.000000D+00  0.000000D+00  0.000000D+00
     13  0.000000D+00  0.000000D+00  0.000000D+00  0.000000D+00  0.000000D+00
     14  0.000000D+00  0.000000D+00  0.000000D+00  0.000000D+00  0.000000D+00
     15  0.000000D+00  0.898480D-04  0.000000D+00 -0.946555D-04  0.000000D+00
     16  0.000000D+00 -0.837998D-02  0.000000D+00  0.882836D-02  0.000000D+00
     17  0.000000D+00  0.522508D+00  0.000000D+00  0.430161D+00  0.000000D+00
     18  0.000000D+00  0.000000D+00  0.000000D+00  0.000000D+00  0.000000D+00
     19  0.000000D+00  0.000000D+00  0.000000D+00  0.000000D+00  0.000000D+00
     20  0.000000D+00  0.000000D+00  0.000000D+00  0.000000D+00  0.000000D+00
[...]
     11          1           0        0.140605    2.429729    0.495285
     12          1           0       -0.062125    2.007237   -1.210351
     13          1           0       -1.476531    2.103616   -0.136851
     14         17           0        2.541547   -0.357462   -0.157453
 ---------------------------------------------------------------------
 Rotational constants (GHZ):           4.4517232           1.2706227           1.1432639
 Leave Link  202 at Tue Oct  8 13:16:33 2024, MaxMem=  2684354560 cpu:               0.1 elap:               0.0
 (Enter /gpfs/fs1/soft/bebop/software/custom-built/gaussian/16-c.02/g16/l301.exe)
 Standard basis: CC-pVTZ (5D, 7F)
 Ernie: Thresh=  0.10000D-02 Tol=  0.10000D-05 Strict=F.
 Ernie:  28 primitive shells out of 254 were deleted.
 There are   334 symmetry adapted cartesian basis functions of A   symmetry.
 There are   296 symmetry adapted basis functions of A   symmetry.
   296 basis functions,   490 primitive gaussians,   334 cartesian basis functions
    29 alpha electrons       28 beta electrons
       nuclear repulsion energy       280.5328165927 Hartrees.
 IExCor=  419 DFT=T Ex+Corr=B2PLYPD3 ExCW=0 ScaHFX=  0.530000
 ScaDFX=  0.470000  0.470000  0.730000  0.730000 ScalE2=  0.270000  0.270000
 IRadAn=      5 IRanWt=     -1 IRanGd=            0 ICorTp=0 IEmpDi=141
 NAtoms=   14 NActive=   14 NUniq=   14 SFac= 1.00D+00 NAtFMM=   60 NAOKFM=F Big=F
 Integral buffers will be    131072 words long.
 Regular integral format.
 Two-electron integral symmetry is turned on.
 R6Disp:  Grimme-D3(BJ) Dispersion energy=       -0.0079990280 Hartrees.
 Nuclear repulsion after empirical dispersion term =      280.5248175646 Hartrees.
 Leave Link  301 at Tue Oct  8 13:16:33 2024, MaxMem=  2684354560 cpu:               0.3 elap:               0.1
 (Enter /gpfs/fs1/soft/bebop/software/custom-built/gaussian/16-c.02/g16/l302.exe)
 NPDir=0 NMtPBC=     1 NCelOv=     1 NCel=       1 NClECP=     1 NCelD=      1
         NCelK=      1 NCelE2=     1 NClLst=     1 CellRange=     0.0.
 One-electron integrals computed using PRISM.
 One-electron integral symmetry used in STVInt
 NBasis=   296 RedAO= T EigKep=  2.84D-04  NBF=   296
 NBsUse=   296 1.00D-06 EigRej= -1.00D+00 NBFU=   296
 Precomputing XC quadrature grid using
 IXCGrd= 4 IRadAn=           5 IRanWt=          -1 IRanGd=           0 AccXCQ= 0.00D+00.
 Generated NRdTot=       0 NPtTot=           0 NUsed=           0 NTot=          32
 NSgBfM=   334   334   334   334   334 MxSgAt=    14 MxSgA2=    14.
 Leave Link  302 at Tue Oct  8 13:16:33 2024, MaxMem=  2684354560 cpu:               1.2 elap:               0.2
 (Enter /gpfs/fs1/soft/bebop/software/custom-built/gaussian/16-c.02/g16/l303.exe)
 DipDrv:  MaxL=1.
 Leave Link  303 at Tue Oct  8 13:16:33 2024, MaxMem=  2684354560 cpu:               0.2 elap:               0.1
 (Enter /gpfs/fs1/soft/bebop/software/custom-built/gaussian/16-c.02/g16/l401.exe)
 Initial guess from the checkpoint file:  "/scratch/Gau-1906986.chk"
 B after Tr=    -0.000000   -0.000000   -0.000000
         Rot=    0.999945    0.009437    0.001759    0.004179 Ang=   1.20 deg.
 Guess basis will be translated and rotated to current coordinates.
 JPrj=2 DoOrth=T DoCkMO=T.
 Initial guess <Sx>= 0.0000 <Sy>= 0.0000 <Sz>= 0.5000 <S**2>= 0.7618 S= 0.5059
 Generating alternative initial guess.
 ExpMin= 1.03D-01 ExpMax= 4.56D+05 ExpMxC= 1.44D+03 IAcc=3 IRadAn=         5 AccDes= 0.00D+00
 Harris functional with IExCor=  419 and IRadAn=       5 diagonalized for initial guess.
 HarFok:  IExCor=  419 AccDes= 0.00D+00 IRadAn=         5 IDoV= 1 UseB2=F ITyADJ=14
 ICtDFT=  3500011 ScaDFX=  1.000000  1.000000  1.000000  1.000000
 FoFCou: FMM=F IPFlag=           0 FMFlag=      100000 FMFlg1=           0
         NFxFlg=           0 DoJE=T BraDBF=F KetDBF=T FulRan=T
         wScrn=  0.000000 ICntrl=       500 IOpCl=  0 I1Cent=   200000004 NGrid=           0
         NMat0=    1 NMatS0=      1 NMatT0=    0 NMatD0=    1 NMtDS0=    0 NMtDT0=    0
 Petite list used in FoFCou.
 Harris En= -692.660665911502    
 Leave Link  401 at Tue Oct  8 13:16:34 2024, MaxMem=  2684354560 cpu:               6.5 elap:               1.1
 (Enter /gpfs/fs1/soft/bebop/software/custom-built/gaussian/16-c.02/g16/l502.exe)
 Keep R1 and R2 ints in memory in canonical form, NReq=1950973320.
 FoFCou: FMM=F IPFlag=           0 FMFlag=           0 FMFlg1=           0
         NFxFlg=           0 DoJE=F BraDBF=F KetDBF=F FulRan=T
         wScrn=  0.000000 ICntrl=       600 IOpCl=  0 I1Cent=           0 NGrid=           0
         NMat0=    1 NMatS0=  43956 NMatT0=    0 NMatD0=    1 NMtDS0=    0 NMtDT0=    0
 Symmetry not used in FoFCou.
 Two-electron integral symmetry not used.
 UHF open shell SCF:
 Using DIIS extrapolation, IDIIS=  1040.
 NGot=  2684354560 LenX=   751952220 LenY=   751840223
 Requested convergence on RMS density matrix=1.00D-08 within  32 cycles.
 Requested convergence on MAX density matrix=1.00D-06.
 Requested convergence on             energy=1.00D-06.
 No special actions if energy rises.
 Integral accuracy reduced to 1.0D-05 until final iterations.

 Cycle   1  Pass 0  IDiag  1:
 E= -691.985761376361    
 DIIS: error= 3.64D-03 at cycle   1 NSaved=   1.
 NSaved= 1 IEnMin= 1 EnMin= -691.985761376361     IErMin= 1 ErrMin= 3.64D-03
 ErrMax= 3.64D-03  0.00D+00 EMaxC= 1.00D-01 BMatC= 1.72D-02 BMatP= 1.72D-02
 IDIUse=3 WtCom= 9.64D-01 WtEn= 3.64D-02
 Coeff-Com:  0.100D+01
 Coeff-En:   0.100D+01
 Coeff:      0.100D+01
 Gap=     0.879 Goal=   None    Shift=    0.000
 Gap=     0.903 Goal=   None    Shift=    0.000
 GapD=    0.879 DampG=2.000 DampE=1.000 DampFc=2.0000 IDamp=-1.
 RMSDP=1.87D-04 MaxDP=6.43D-03              OVMax= 1.91D-02

 Cycle   2  Pass 0  IDiag  1:
 E= -691.991079524930     Delta-E=       -0.005318148569 Rises=F Damp=F
 DIIS: error= 8.39D-04 at cycle   2 NSaved=   2.
 NSaved= 2 IEnMin= 2 EnMin= -691.991079524930     IErMin= 2 ErrMin= 8.39D-04
 ErrMax= 8.39D-04  0.00D+00 EMaxC= 1.00D-01 BMatC= 4.90D-04 BMatP= 1.72D-02
 IDIUse=3 WtCom= 9.92D-01 WtEn= 8.39D-03
 Coeff-Com: -0.135D+00 0.113D+01
 Coeff-En:   0.000D+00 0.100D+01
 Coeff:     -0.134D+00 0.113D+01
 Gap=     0.407 Goal=   None    Shift=    0.000
 Gap=     0.233 Goal=   None    Shift=    0.000
 RMSDP=5.38D-05 MaxDP=2.08D-03 DE=-5.32D-03 OVMax= 5.39D-03

 Cycle   3  Pass 0  IDiag  1:
 E= -691.991354301505     Delta-E=       -0.000274776575 Rises=F Damp=F
 DIIS: error= 4.27D-04 at cycle   3 NSaved=   3.
 NSaved= 3 IEnMin= 3 EnMin= -691.991354301505     IErMin= 3 ErrMin= 4.27D-04
 ErrMax= 4.27D-04  0.00D+00 EMaxC= 1.00D-01 BMatC= 6.04D-05 BMatP= 4.90D-04
 IDIUse=3 WtCom= 9.96D-01 WtEn= 4.27D-03
 Coeff-Com: -0.411D-01 0.253D+00 0.788D+00
 Coeff-En:   0.000D+00 0.000D+00 0.100D+01
 Coeff:     -0.409D-01 0.252D+00 0.789D+00
 Gap=     0.406 Goal=   None    Shift=    0.000
 Gap=     0.232 Goal=   None    Shift=    0.000
 RMSDP=1.65D-05 MaxDP=1.40D-03 DE=-2.75D-04 OVMax= 5.21D-03

 Cycle   4  Pass 0  IDiag  1:
 E= -691.991379169913     Delta-E=       -0.000024868408 Rises=F Damp=F
 DIIS: error= 1.43D-04 at cycle   4 NSaved=   4.
 NSaved= 4 IEnMin= 4 EnMin= -691.991379169913     IErMin= 4 ErrMin= 1.43D-04
 ErrMax= 1.43D-04  0.00D+00 EMaxC= 1.00D-01 BMatC= 2.79D-05 BMatP= 6.04D-05
 IDIUse=3 WtCom= 9.99D-01 WtEn= 1.43D-03
 Coeff-Com:  0.119D-01-0.147D+00 0.365D+00 0.770D+00
 Coeff-En:   0.000D+00 0.000D+00 0.000D+00 0.100D+01
 Coeff:      0.119D-01-0.146D+00 0.365D+00 0.770D+00
 Gap=     0.407 Goal=   None    Shift=    0.000
 Gap=     0.233 Goal=   None    Shift=    0.000
 RMSDP=1.14D-05 MaxDP=6.23D-04 DE=-2.49D-05 OVMax= 1.84D-03

 Cycle   5  Pass 0  IDiag  1:
 E= -691.991391250872     Delta-E=       -0.000012080959 Rises=F Damp=F
 DIIS: error= 4.38D-05 at cycle   5 NSaved=   5.
 NSaved= 5 IEnMin= 5 EnMin= -691.991391250872     IErMin= 5 ErrMin= 4.38D-05
 ErrMax= 4.38D-05  0.00D+00 EMaxC= 1.00D-01 BMatC= 2.42D-06 BMatP= 2.79D-05
 IDIUse=1 WtCom= 1.00D+00 WtEn= 0.00D+00
 Coeff-Com:  0.390D-02-0.225D-01-0.291D-01-0.131D+00 0.118D+01
 Coeff:      0.390D-02-0.225D-01-0.291D-01-0.131D+00 0.118D+01
 Gap=     0.407 Goal=   None    Shift=    0.000
 Gap=     0.233 Goal=   None    Shift=    0.000
 RMSDP=7.15D-06 MaxDP=5.08D-04 DE=-1.21D-05 OVMax= 1.95D-03

 Initial convergence to 1.0D-05 achieved.  Increase integral accuracy.
 Cycle   6  Pass 1  IDiag  1:
 E= -691.991398069407     Delta-E=       -0.000006818535 Rises=F Damp=F
 DIIS: error= 3.30D-05 at cycle   1 NSaved=   1.
 NSaved= 1 IEnMin= 1 EnMin= -691.991398069407     IErMin= 1 ErrMin= 3.30D-05
 ErrMax= 3.30D-05  0.00D+00 EMaxC= 1.00D-01 BMatC= 1.10D-06 BMatP= 1.10D-06
 IDIUse=1 WtCom= 1.00D+00 WtEn= 0.00D+00
 Coeff-Com:  0.100D+01
 Coeff:      0.100D+01
 Gap=     0.407 Goal=   None    Shift=    0.000
 Gap=     0.233 Goal=   None    Shift=    0.000
 RMSDP=7.15D-06 MaxDP=5.08D-04 DE=-6.82D-06 OVMax= 8.88D-04

 Cycle   7  Pass 1  IDiag  1:
 E= -691.991399096961     Delta-E=       -0.000001027554 Rises=F Damp=F
 DIIS: error= 2.32D-05 at cycle   2 NSaved=   2.
 NSaved= 2 IEnMin= 2 EnMin= -691.991399096961     IErMin= 2 ErrMin= 2.32D-05
 ErrMax= 2.32D-05  0.00D+00 EMaxC= 1.00D-01 BMatC= 6.76D-07 BMatP= 1.10D-06
 IDIUse=1 WtCom= 1.00D+00 WtEn= 0.00D+00
 Coeff-Com:  0.379D+00 0.621D+00
 Coeff:      0.379D+00 0.621D+00
 Gap=     0.407 Goal=   None    Shift=    0.000
 Gap=     0.233 Goal=   None    Shift=    0.000
 RMSDP=1.66D-06 MaxDP=1.24D-04 DE=-1.03D-06 OVMax= 4.42D-04

 Cycle   8  Pass 1  IDiag  1:
 E= -691.991399535900     Delta-E=       -0.000000438939 Rises=F Damp=F
 DIIS: error= 2.06D-05 at cycle   3 NSaved=   3.
 NSaved= 3 IEnMin= 3 EnMin= -691.991399535900     IErMin= 3 ErrMin= 2.06D-05
 ErrMax= 2.06D-05  0.00D+00 EMaxC= 1.00D-01 BMatC= 3.04D-07 BMatP= 6.76D-07
 IDIUse=1 WtCom= 1.00D+00 WtEn= 0.00D+00
 Coeff-Com: -0.633D+00 0.367D-01 0.160D+01
 Coeff:     -0.633D+00 0.367D-01 0.160D+01
 Gap=     0.407 Goal=   None    Shift=    0.000
 Gap=     0.233 Goal=   None    Shift=    0.000
 RMSDP=4.14D-06 MaxDP=3.37D-04 DE=-4.39D-07 OVMax= 1.35D-03

 Cycle   9  Pass 1  IDiag  1:
 E= -691.991400217316     Delta-E=       -0.000000681416 Rises=F Damp=F
 DIIS: error= 1.23D-05 at cycle   4 NSaved=   4.
 NSaved= 4 IEnMin= 4 EnMin= -691.991400217316     IErMin= 4 ErrMin= 1.23D-05
 ErrMax= 1.23D-05  0.00D+00 EMaxC= 1.00D-01 BMatC= 1.16D-07 BMatP= 3.04D-07
 IDIUse=1 WtCom= 1.00D+00 WtEn= 0.00D+00
 Coeff-Com: -0.510D+00-0.168D+00 0.958D+00 0.720D+00
 Coeff:     -0.510D+00-0.168D+00 0.958D+00 0.720D+00
 Gap=     0.407 Goal=   None    Shift=    0.000
 Gap=     0.233 Goal=   None    Shift=    0.000
 RMSDP=2.06D-06 MaxDP=1.90D-04 DE=-6.81D-07 OVMax= 7.44D-04

 Cycle  10  Pass 1  IDiag  1:
 E= -691.991400411715     Delta-E=       -0.000000194399 Rises=F Damp=F
 DIIS: error= 1.02D-05 at cycle   5 NSaved=   5.
 NSaved= 5 IEnMin= 5 EnMin= -691.991400411715     IErMin= 5 ErrMin= 1.02D-05
 ErrMax= 1.02D-05  0.00D+00 EMaxC= 1.00D-01 BMatC= 2.95D-08 BMatP= 1.16D-07
 IDIUse=1 WtCom= 1.00D+00 WtEn= 0.00D+00
 Coeff-Com:  0.476D-02-0.509D-01-0.529D-01 0.124D+00 0.975D+00
 Coeff:      0.476D-02-0.509D-01-0.529D-01 0.124D+00 0.975D+00
 Gap=     0.407 Goal=   None    Shift=    0.000
 Gap=     0.233 Goal=   None    Shift=    0.000
 RMSDP=9.77D-07 MaxDP=1.10D-04 DE=-1.94D-07 OVMax= 4.10D-04

 Cycle  11  Pass 1  IDiag  1:
 E= -691.991400482006     Delta-E=       -0.000000070292 Rises=F Damp=F
 DIIS: error= 7.45D-06 at cycle   6 NSaved=   6.
 NSaved= 6 IEnMin= 6 EnMin= -691.991400482006     IErMin= 6 ErrMin= 7.45D-06
 ErrMax= 7.45D-06  0.00D+00 EMaxC= 1.00D-01 BMatC= 1.71D-08 BMatP= 2.95D-08
 IDIUse=1 WtCom= 1.00D+00 WtEn= 0.00D+00
 Coeff-Com:  0.465D+00 0.116D+00-0.846D+00-0.722D+00 0.632D-01 0.192D+01
 Coeff:      0.465D+00 0.116D+00-0.846D+00-0.722D+00 0.632D-01 0.192D+01
 Gap=     0.407 Goal=   None    Shift=    0.000
 Gap=     0.233 Goal=   None    Shift=    0.000
 RMSDP=2.11D-06 MaxDP=2.41D-04 DE=-7.03D-08 OVMax= 8.88D-04

 Cycle  12  Pass 1  IDiag  1:
 E= -691.991400573334     Delta-E=       -0.000000091328 Rises=F Damp=F
 DIIS: error= 2.84D-06 at cycle   7 NSaved=   7.
 NSaved= 7 IEnMin= 7 EnMin= -691.991400573334     IErMin= 7 ErrMin= 2.84D-06
 ErrMax= 2.84D-06  0.00D+00 EMaxC= 1.00D-01 BMatC= 3.11D-09 BMatP= 1.71D-08
 IDIUse=1 WtCom= 1.00D+00 WtEn= 0.00D+00
 Coeff-Com: -0.270D-01 0.468D-02 0.105D+00-0.444D-01-0.337D+00-0.870D-01
 Coeff-Com:  0.139D+01
 Coeff:     -0.270D-01 0.468D-02 0.105D+00-0.444D-01-0.337D+00-0.870D-01
 Coeff:      0.139D+01
 Gap=     0.407 Goal=   None    Shift=    0.000
 Gap=     0.233 Goal=   None    Shift=    0.000
 RMSDP=9.30D-07 MaxDP=1.05D-04 DE=-9.13D-08 OVMax= 3.80D-04

 Cycle  13  Pass 1  IDiag  1:
 E= -691.991400586540     Delta-E=       -0.000000013206 Rises=F Damp=F
 DIIS: error= 7.03D-07 at cycle   8 NSaved=   8.
 NSaved= 8 IEnMin= 8 EnMin= -691.991400586540     IErMin= 8 ErrMin= 7.03D-07
 ErrMax= 7.03D-07  0.00D+00 EMaxC= 1.00D-01 BMatC= 4.97D-10 BMatP= 3.11D-09
 IDIUse=1 WtCom= 1.00D+00 WtEn= 0.00D+00
 Coeff-Com: -0.757D-01-0.177D-01 0.155D+00 0.780D-01-0.122D+00-0.287D+00
 Coeff-Com:  0.495D+00 0.774D+00
 Coeff:     -0.757D-01-0.177D-01 0.155D+00 0.780D-01-0.122D+00-0.287D+00
 Coeff:      0.495D+00 0.774D+00
 Gap=     0.407 Goal=   None    Shift=    0.000
 Gap=     0.233 Goal=   None    Shift=    0.000
 RMSDP=1.76D-07 MaxDP=1.98D-05 DE=-1.32D-08 OVMax= 7.27D-05

 Cycle  14  Pass 1  IDiag  1:
 E= -691.991400587177     Delta-E=       -0.000000000637 Rises=F Damp=F
 DIIS: error= 2.50D-07 at cycle   9 NSaved=   9.
 NSaved= 9 IEnMin= 9 EnMin= -691.991400587177     IErMin= 9 ErrMin= 2.50D-07
 ErrMax= 2.50D-07  0.00D+00 EMaxC= 1.00D-01 BMatC= 8.29D-11 BMatP= 4.97D-10
 IDIUse=1 WtCom= 1.00D+00 WtEn= 0.00D+00
 Coeff-Com:  0.143D-02-0.129D-02-0.819D-02 0.635D-02 0.595D-01-0.438D-02
 Coeff-Com: -0.229D+00 0.460D-01 0.113D+01
 Coeff:      0.143D-02-0.129D-02-0.819D-02 0.635D-02 0.595D-01-0.438D-02
 Coeff:     -0.229D+00 0.460D-01 0.113D+01
 Gap=     0.407 Goal=   None    Shift=    0.000
 Gap=     0.233 Goal=   None    Shift=    0.000
 RMSDP=5.01D-08 MaxDP=4.72D-06 DE=-6.37D-10 OVMax= 1.73D-05

 Cycle  15  Pass 1  IDiag  1:
 E= -691.991400587268     Delta-E=       -0.000000000091 Rises=F Damp=F
 DIIS: error= 1.16D-07 at cycle  10 NSaved=  10.
 NSaved=10 IEnMin=10 EnMin= -691.991400587268     IErMin=10 ErrMin= 1.16D-07
 ErrMax= 1.16D-07  0.00D+00 EMaxC= 1.00D-01 BMatC= 1.83D-11 BMatP= 8.29D-11
 IDIUse=1 WtCom= 1.00D+00 WtEn= 0.00D+00
 Coeff-Com:  0.198D-01 0.418D-02-0.412D-01-0.221D-01 0.479D-01 0.699D-01
 Coeff-Com: -0.163D+00-0.194D+00 0.183D+00 0.110D+01
 Coeff:      0.198D-01 0.418D-02-0.412D-01-0.221D-01 0.479D-01 0.699D-01
 Coeff:     -0.163D+00-0.194D+00 0.183D+00 0.110D+01
 Gap=     0.407 Goal=   None    Shift=    0.000
 Gap=     0.233 Goal=   None    Shift=    0.000
 RMSDP=1.90D-08 MaxDP=1.37D-06 DE=-9.11D-11 OVMax= 5.15D-06

 Cycle  16  Pass 1  IDiag  1:
 E= -691.991400587287     Delta-E=       -0.000000000019 Rises=F Damp=F
 DIIS: error= 3.09D-08 at cycle  11 NSaved=  11.
 NSaved=11 IEnMin=11 EnMin= -691.991400587287     IErMin=11 ErrMin= 3.09D-08
 ErrMax= 3.09D-08  0.00D+00 EMaxC= 1.00D-01 BMatC= 1.60D-12 BMatP= 1.83D-11
 IDIUse=1 WtCom= 1.00D+00 WtEn= 0.00D+00
 Coeff-Com: -0.332D-02-0.272D-03 0.758D-02 0.239D-02-0.159D-01-0.117D-01
 Coeff-Com:  0.618D-01 0.217D-01-0.203D+00-0.169D+00 0.131D+01
 Coeff:     -0.332D-02-0.272D-03 0.758D-02 0.239D-02-0.159D-01-0.117D-01
 Coeff:      0.618D-01 0.217D-01-0.203D+00-0.169D+00 0.131D+01
 Gap=     0.407 Goal=   None    Shift=    0.000
 Gap=     0.233 Goal=   None    Shift=    0.000
 RMSDP=6.20D-09 MaxDP=3.31D-07 DE=-1.92D-11 OVMax= 1.25D-06

 SCF Done:  E(UB2PLYPD3) =  -691.991400587     A.U. after   16 cycles
            NFock= 16  Conv=0.62D-08     -V/T= 2.0026
 <Sx>= 0.0000 <Sy>= 0.0000 <Sz>= 0.5000 <S**2>= 0.7625 S= 0.5062
 <L.S>=  0.00000000000    
 KE= 6.901772998058D+02 PE=-2.196158660592D+03 EE= 5.334651426342D+02
 Annihilation of the first spin contaminant:
 S**2 before annihilation     0.7625,   after     0.7501
 Leave Link  502 at Tue Oct  8 13:17:52 2024, MaxMem=  2684354560 cpu:             221.4 elap:              77.9
 (Enter /gpfs/fs1/soft/bebop/software/custom-built/gaussian/16-c.02/g16/l508.exe)
 QCSCF skips out because SCF is already converged.
 Leave Link  508 at Tue Oct  8 13:17:52 2024, MaxMem=  2684354560 cpu:               0.0 elap:               0.0
 (Enter /gpfs/fs1/soft/bebop/software/custom-built/gaussian/16-c.02/g16/l801.exe)
 DoSCS=T DFT=T ScalE2(SS,OS)=  0.270000  0.270000
 ExpMin= 1.03D-01 ExpMax= 4.56D+05 ExpMxC= 1.44D+03 IAcc=3 IRadAn=         5 AccDes= 0.00D+00
 HarFok:  IExCor=  205 AccDes= 0.00D+00 IRadAn=         5 IDoV=-2 UseB2=F ITyADJ=14
 ICtDFT= 12500011 ScaDFX=  1.000000  1.000000  1.000000  1.000000
 Largest valence mixing into a core orbital is  1.86D-04
 Largest core mixing into a valence orbital is  6.85D-05
 Largest valence mixing into a core orbital is  1.93D-04
 Largest core mixing into a valence orbital is  5.35D-05
 Range of M.O.s used for correlation:    11   296
 NBasis=   296 NAE=    29 NBE=    28 NFC=    10 NFV=     0
 NROrb=    286 NOA=    19 NOB=    18 NVA=   267 NVB=   268

 **** Warning!!: The largest alpha MO coefficient is  0.10158168D+02


 **** Warning!!: The largest beta MO coefficient is  0.11284678D+02

 Leave Link  801 at Tue Oct  8 13:17:52 2024, MaxMem=  2684354560 cpu:               0.5 elap:               0.1
 (Enter /gpfs/fs1/soft/bebop/software/custom-built/gaussian/16-c.02/g16/l906.exe)
 DoSCS=T DFT=T ScalE2(SS,OS)=  0.270000  0.270000
 Frozen-core derivative calculation, NFC=  10 NFV=   0.
 FulOut=F Deriv=T AODrv=T NAtomX=    14
   MMem=          23  MDisk=          19 MDiskD=          19
  W3Min=     5734112 MinDsk=     4243203 NBas6D=         334
 NBas2D=       56620    NTT=       55945    LW2=     3500000
    MDV=  2682940085 MDiskM=       40133 NBas2p=       54505
 Fully direct method using O(ONN) memory.
 IMap=   1   2   3   4   5   6   7   8   9  10  11  12  13  14  15  16  17  18  19  20
 IMap=  21  22  23  24  25  26  27  28  29
 JobTyp=2 Pass  1:  I=  11 to  29 NPSUse=  6 ParTrn=T ParDer=T DoDerP=T.
 IMap=   1   2   3   4   5   6   7   8   9  10  11  12  13  14  15  16  17  18  19  20
 IMap=  21  22  23  24  25  26  27  28
 JobTyp=3 Pass  1:  I=  11 to  28 NPSUse=  6 ParTrn=T ParDer=T DoDerP=T.
 Spin components of T(2) and E(2):
     alpha-alpha T2 =       0.6662250038D-01 E2=     -0.4515821168D-01
     alpha-beta  T2 =       0.3869543687D+00 E2=     -0.2752317694D+00
     beta-beta   T2 =       0.7114253813D-01 E2=     -0.4395895747D-01
 The integrals were generated   2 times.
 (S**2,0)=  0.76252D+00           (S**2,1)=  0.74296D+00
 Scaling Projection term by:   0.270000
 E(PUHF)=      -0.69199570812D+03        E(PMP2)=      -0.69235600754D+03
 E2(B2PLYPD3) =    -0.3643489386D+00 E(B2PLYPD3) =    -0.69235574952588D+03
 Leave Link  906 at Tue Oct  8 13:20:43 2024, MaxMem=  2684354560 cpu:            1018.2 elap:             170.3
 (Enter /gpfs/fs1/soft/bebop/software/custom-built/gaussian/16-c.02/g16/l1002.exe)
 Minotr:  UHF open shell wavefunction.
          Computing MP2/KS-MP2 derivatives.
          Using Z-Vector for PSCF gradient.
          Skipping F1 and S1 gradient terms here.
          IDoAtm=11111111111111
          Frozen-core window.
          Direct CPHF calculation.
          Differentiating once with respect to electric field.
                with respect to dipole field.
          Differentiating once with respect to nuclear coordinates.
          Requested convergence is 1.0D-10 RMS, and 1.0D-09 maximum.
          NewPWx=F KeepS1=T KeepF1=T KeepIn=T MapXYZ=F SortEE=F KeepMc=T.
 Keep R1 and R2 ints in memory in canonical form, NReq=1950975864.
 FoFCou: FMM=F IPFlag=           0 FMFlag=           0 FMFlg1=           0
         NFxFlg=           0 DoJE=F BraDBF=F KetDBF=F FulRan=T
         wScrn=  0.000000 ICntrl=       600 IOpCl=  0 I1Cent=           0 NGrid=           0
         NMat0=    1 NMatS0=  43956 NMatT0=    0 NMatD0=    1 NMtDS0=    0 NMtDT0=    0
 Symmetry not used in FoFCou.
