 Entering Gaussian System, Link 0=g16
 Input=run.inp
 Output=run.out
 Initial command:
 /gpfs/fs1/soft/bebop/software/custom-built/gaussian/16-c.02/g16/l1.exe "/scratch/Gau-1772645.inp" -scrdir="/scratch/"
 Default CPUs for threads: 0-35
 Default is to use a total of  36 processors:
                               36 via shared-memory
                                1 via Linda
 Entering Link 1 = /gpfs/fs1/soft/bebop/software/custom-built/gaussian/16-c.02/g16/l1.exe PID=   1772649.
  
 Copyright (c) 1988-2019, Gaussian, Inc.  All Rights Reserved.
  
 This is part of the Gaussian(R) 16 program.  It is based on
 the Gaussian(R) 09 system (copyright 2009, Gaussian, Inc.),
 the Gaussian(R) 03 system (copyright 2003, Gaussian, Inc.),
 the Gaussian(R) 98 system (copyright 1998, Gaussian, Inc.),
 the Gaussian(R) 94 system (copyright 1995, Gaussian, Inc.),
 the Gaussian 92(TM) system (copyright 1992, Gaussian, Inc.),
 the Gaussian 90(TM) system (copyright 1990, Gaussian, Inc.),
 the Gaussian 88(TM) system (copyright 1988, Gaussian, Inc.),
 the Gaussian 86(TM) system (copyright 1986, Carnegie Mellon
 University), and the Gaussian 82(TM) system (copyright 1983,
 Carnegie Mellon University). Gaussian is a federally registered
 trademark of Gaussian, Inc.
  
 This software contains proprietary and confidential information,
 including trade secrets, belonging to Gaussian, Inc.
  
 This software is provided under written license and may be
 used, copied, transmitted, or stored only in accord with that
 written license.
  
 The following legend is applicable only to US Government
 contracts under FAR:
  
                    RESTRICTED RIGHTS LEGEND
  
 Use, reproduction and disclosure by the US Government is
 subject to restrictions as set forth in subparagraphs (a)
 and (c) of the Commercial Computer Software - Restricted
 Rights clause in FAR 52.227-19.
  
 Gaussian, Inc.
 340 Quinnipiac St., Bldg. 40, Wallingford CT 06492
  
  
 ---------------------------------------------------------------
 Warning -- This program may not be used in any manner that
 competes with the business of Gaussian, Inc. or will provide
 assistance to any competitor of Gaussian, Inc.  The licensee
 of this program is prohibited from giving any competitor of
 Gaussian, Inc. access to this program.  By using this program,
 the user acknowledges that Gaussian, Inc. is engaged in the
 business of creating and licensing software in the field of
 computational chemistry and represents and warrants to the
 licensee that it is not a competitor of Gaussian, Inc. and that
 it will not use this program in any manner prohibited above.
 ---------------------------------------------------------------
  

 Cite this work as:
 Gaussian 16, Revision C.01,
 M. J. Frisch, G. W. Trucks, H. B. Schlegel, G. E. Scuseria, 
 M. A. Robb, J. R. Cheeseman, G. Scalmani, V. Barone, 
 G. A. Petersson, H. Nakatsuji, X. Li, M. Caricato, A. V. Marenich, 
 J. Bloino, B. G. Janesko, R. Gomperts, B. Mennucci, H. P. Hratchian, 
 J. V. Ortiz, A. F. Izmaylov, J. L. Sonnenberg, D. Williams-Young, 
 F. Ding, F. Lipparini, F. Egidi, J. Goings, B. Peng, A. Petrone, 
 T. Henderson, D. Ranasinghe, V. G. Zakrzewski, J. Gao, N. Rega, 
 G. Zheng, W. Liang, M. Hada, M. Ehara, K. Toyota, R. Fukuda, 
 J. Hasegawa, M. Ishida, T. Nakajima, Y. Honda, O. Kitao, H. Nakai, 
 T. Vreven, K. Throssell, J. A. Montgomery, Jr., J. E. Peralta, 
 F. Ogliaro, M. J. Bearpark, J. J. Heyd, E. N. Brothers, K. N. Kudin, 
 V. N. Staroverov, T. A. Keith, R. Kobayashi, J. Normand, 
 K. Raghavachari, A. P. Rendell, J. C. Burant, S. S. Iyengar, 
 J. Tomasi, M. Cossi, J. M. Millam, M. Klene, C. Adamo, R. Cammi, 
 J. W. Ochterski, R. L. Martin, K. Morokuma, O. Farkas, 
 J. B. Foresman, and D. J. Fox, Gaussian, Inc., Wallingford CT, 2019.
 
 ******************************************
 Gaussian 16:  ES64L-G16RevC.01  3-Jul-2019
                 7-Oct-2024 
 ******************************************
 %mem=20GB
 %NProcShared=6
 Will use up to    6 processors via shared memory.
 ----------------------------------------------------------------------
 #P b2plypd3/cc-pvtz # SCF=(xqc) # POpt=(CalcFC,TS,NoEigen,MaxCycles=60
 ) # int=ultrafine
 ----------------------------------------------------------------------
 1/5=1,6=60,10=4,11=1,38=1/1,3;
 2/12=2,17=6,18=5,29=3,40=1/2;
 3/5=16,6=1,11=9,25=1,30=1,71=2,74=-60,75=-5,140=1/1,2,3;
 4//1;
 5/5=2,8=3,13=1,38=5/2,8;
 8/6=3,8=1,10=1,19=11,30=-1/1;
 9/15=3,16=-3/6;
 11/6=1,8=1,15=11,17=12,24=-1,27=1,28=-2,29=300,32=6,42=3/1,2,10;
 10/6=2,21=1/2;
 8/6=4,8=1,10=1,19=11,30=-1/11,4;
 10/5=1,20=4/2;
 11/12=2,14=11,16=1,17=2,28=-2,42=3,76=2/2,10,12;
 6/7=2,8=2,9=2,10=2/1;
 7/10=1,12=2,25=1,44=2/1,2,3,16;
 1/5=1,6=60,10=4,11=1/3(2);
 2/29=3/2;
 99//99;
 2/29=3/2;
 3/5=16,6=1,11=9,25=1,30=1,71=1,74=-60,75=-5/1,2,3;
 4/5=5,16=3,69=1/1;
 5/5=2,8=3,13=1,38=5/2,8;
 8/6=4,10=1/1;
 9/15=2,16=-3/6;
 10/5=1/2;
 7/12=2/1,2,3,16;
 1/5=1,6=60,11=1/3(-8);
 2/29=3/2;
 6/7=2,8=2,9=2,10=2/1;
 99/9=10/99;
 Leave Link    1 at Mon Oct  7 13:15:30 2024, MaxMem=  2684354560 cpu:               0.5 elap:               0.0
 (Enter /gpfs/fs1/soft/bebop/software/custom-built/gaussian/16-c.02/g16/l101.exe)
 --------
 comment:
 --------
 Symbolic Z-matrix:
 Charge =  0 Multiplicity = 2
 C
 C                    1    R1
 C                    1    R2       2    A2
 H                    1    R3       2    A3       3    D3       0
 O                    3    R4       1    A4       2    D4       0
 C                    3    R5       1    A5       5    D5       0
 H                    3    R6       1    A6       5    D6       0
 H                    2    R7       1    A7       3    D7       0
 H                    2    R8       1    A8       8    D8       0
 H                    2    R9       1    A9       8    D9       0
 H                    6    R10      3    A10      1    D10      0
 H                    6    R11      3    A11      11   D11      0
 H                    6    R12      3    A12      11   D12      0
 X                    7    R13      3    A13      6    D13      0
 Cl                   7    R14      14   A14      3    D14      0
       Variables:
  R1                    1.4953                   
  R2                    1.4518                   
  R3                    1.0828                   
  R4                    1.3637                   
  R5                    1.486                    
  R6                    1.5031                   
  R7                    1.087                    
  R8                    1.0891                   
  R9                    1.09                     
  R10                   1.0882                   
  R11                   1.0871                   
  R12                   1.092                    
  R14                   1.4179                   
  A2                  123.9728                   
  A3                  116.9215                   
  A4                   63.8111                   
  A5                  135.6064                   
  A6                  108.6084                   
  A7                  111.35                     
  A8                  110.474                    
  A9                  109.6059                   
  A10                 109.8152                   
  A11                 110.0849                   
  A12                 110.5352                   
  A14                  86.7426                   
  D3                  198.7154                   
  D4                   99.5116                   
  D5                  247.7496                   
  D6                  105.9154                   
  D7                  339.5232                   
  D8                  239.1616                   
  D9                  120.3367                   
  D10                 148.3749                   
  D11                 119.6877                   
  D12                 240.3672                   
  D14                 177.6156                   
       Constants:
  R13                   1.                       
  A13                  90.                       
  D13                 310.8195                   
 
 ITRead=  0  0  0  0  0  0  0  0  0  0  0  0  0  0
 MicOpt= -1 -1 -1 -1 -1 -1 -1 -1 -1 -1 -1 -1 -1 -1
 NAtoms=     14 NQM=       14 NQMF=       0 NMMI=      0 NMMIF=      0
                NMic=       0 NMicF=      0.
                    Isotopes and Nuclear Properties:
 (Nuclear quadrupole moments (NQMom) in fm**2, nuclear magnetic moments (NMagM)
  in nuclear magnetons)

  Atom         1           2           3           4           5           6           7           8           9          10
 IAtWgt=          12          12          12           1          16          12           1           1           1           1
 AtmWgt=  12.0000000  12.0000000  12.0000000   1.0078250  15.9949146  12.0000000   1.0078250   1.0078250   1.0078250   1.0078250
 NucSpn=           0           0           0           1           0           0           1           1           1           1
 AtZEff=  -0.0000000  -0.0000000  -0.0000000  -0.0000000  -0.0000000  -0.0000000  -0.0000000  -0.0000000  -0.0000000  -0.0000000
 NQMom=    0.0000000   0.0000000   0.0000000   0.0000000   0.0000000   0.0000000   0.0000000   0.0000000   0.0000000   0.0000000
 NMagM=    0.0000000   0.0000000   0.0000000   2.7928460   0.0000000   0.0000000   2.7928460   2.7928460   2.7928460   2.7928460
 AtZNuc=   6.0000000   6.0000000   6.0000000   1.0000000   8.0000000   6.0000000   1.0000000   1.0000000   1.0000000   1.0000000

  Atom        11          12          13          14
 IAtWgt=           1           1           1          35
 AtmWgt=   1.0078250   1.0078250   1.0078250  34.9688527
 NucSpn=           1           1           1           3
 AtZEff=  -0.0000000  -0.0000000  -0.0000000  -0.0000000
 NQMom=    0.0000000   0.0000000   0.0000000  -8.1650000
 NMagM=    2.7928460   2.7928460   2.7928460   0.8218740
 AtZNuc=   1.0000000   1.0000000   1.0000000  17.0000000
 Leave Link  101 at Mon Oct  7 13:15:30 2024, MaxMem=  2684354560 cpu:               0.6 elap:               0.1
 (Enter /gpfs/fs1/soft/bebop/software/custom-built/gaussian/16-c.02/g16/l103.exe)

 GradGradGradGradGradGradGradGradGradGradGradGradGradGradGradGradGradGrad
 Berny optimization.
 Initialization pass.
                       ----------------------------
                       !    Initial Parameters    !
                       ! (Angstroms and Degrees)  !
 ----------------------                            ----------------------
 !      Name          Value   Derivative information (Atomic Units)     !
 ------------------------------------------------------------------------
 !       R1          1.4953   calculate D2E/DX2 analytically            !
 !       R2          1.4518   calculate D2E/DX2 analytically            !
 !       R3          1.0828   calculate D2E/DX2 analytically            !
 !       R4          1.3637   calculate D2E/DX2 analytically            !
 !       R5          1.486    calculate D2E/DX2 analytically            !
 !       R6          1.5031   calculate D2E/DX2 analytically            !
 !       R7          1.087    calculate D2E/DX2 analytically            !
 !       R8          1.0891   calculate D2E/DX2 analytically            !
 !       R9          1.09     calculate D2E/DX2 analytically            !
 !       R10         1.0882   calculate D2E/DX2 analytically            !
 !       R11         1.0871   calculate D2E/DX2 analytically            !
 !       R12         1.092    calculate D2E/DX2 analytically            !
 !       R14         1.4179   calculate D2E/DX2 analytically            !
 !       A2        123.9728   calculate D2E/DX2 analytically            !
 !       A3        116.9215   calculate D2E/DX2 analytically            !
 !       A4         63.8111   calculate D2E/DX2 analytically            !
 !       A5        135.6064   calculate D2E/DX2 analytically            !
 !       A6        108.6084   calculate D2E/DX2 analytically            !
 !       A7        111.35     calculate D2E/DX2 analytically            !
 !       A8        110.474    calculate D2E/DX2 analytically            !
 !       A9        109.6059   calculate D2E/DX2 analytically            !
 !       A10       109.8152   calculate D2E/DX2 analytically            !
 !       A11       110.0849   calculate D2E/DX2 analytically            !
 !       A12       110.5352   calculate D2E/DX2 analytically            !
 !       A14        86.7426   calculate D2E/DX2 analytically            !
 !       D3        198.7154   calculate D2E/DX2 analytically            !
 !       D4         99.5116   calculate D2E/DX2 analytically            !
 !       D5        247.7496   calculate D2E/DX2 analytically            !
 !       D6        105.9154   calculate D2E/DX2 analytically            !
 !       D7        339.5232   calculate D2E/DX2 analytically            !
 !       D8        239.1616   calculate D2E/DX2 analytically            !
 !       D9        120.3367   calculate D2E/DX2 analytically            !
 !       D10       148.3749   calculate D2E/DX2 analytically            !
 !       D11       119.6877   calculate D2E/DX2 analytically            !
 !       D12       240.3672   calculate D2E/DX2 analytically            !
 !       D14       177.6156   calculate D2E/DX2 analytically            !
 !       R13         1.0      frozen, calculate D2E/DX2 analytically    !
 !       A13        90.0      frozen, calculate D2E/DX2 analytically    !
 !       D13       310.8195   frozen, calculate D2E/DX2 analytically    !
 ------------------------------------------------------------------------
 Trust Radius=3.00D-01 FncErr=1.00D-07 GrdErr=1.00D-07 EigMax=2.50D+02 EigMin=1.00D-04
 Number of steps in this run=     60 maximum allowed number of steps=    100.
 Search for a saddle point of order  1.
 GradGradGradGradGradGradGradGradGradGradGradGradGradGradGradGradGradGrad

 Leave Link  103 at Mon Oct  7 13:15:31 2024, MaxMem=  2684354560 cpu:               0.1 elap:               0.0
 (Enter /gpfs/fs1/soft/bebop/software/custom-built/gaussian/16-c.02/g16/l202.exe)
 ---------------------------------------------------------------------------------------------------
                            Z-MATRIX (ANGSTROMS AND DEGREES)
   CD    Cent   Atom    N1       Length/X        N2       Alpha/Y        N3        Beta/Z          J
 ---------------------------------------------------------------------------------------------------
      1      1  C 
      2      2  C        1   1.495300(     1)
      3      3  C        1   1.451800(     2)      2  123.973(    15)
      4      4  H        1   1.082800(     3)      2  116.922(    16)      3  198.715(    28)      0
      5      5  O        3   1.363700(     4)      1   63.811(    17)      2   99.512(    29)      0
      6      6  C        3   1.486000(     5)      1  135.606(    18)      5  247.750(    30)      0
      7      7  H        3   1.503100(     6)      1  108.608(    19)      5  105.915(    31)      0
      8      8  H        2   1.087000(     7)      1  111.350(    20)      3  339.523(    32)      0
      9      9  H        2   1.089100(     8)      1  110.474(    21)      8  239.162(    33)      0
     10     10  H        2   1.090000(     9)      1  109.606(    22)      8  120.337(    34)      0
     11     11  H        6   1.088200(    10)      3  109.815(    23)      1  148.375(    35)      0
     12     12  H        6   1.087100(    11)      3  110.085(    24)     11  119.688(    36)      0
     13     13  H        6   1.092000(    12)      3  110.535(    25)     11  240.367(    37)      0
     14         X        7   1.000000(    13)      3   90.000(    26)      6  310.820(    38)      0
     15     14  Cl       7   1.417900(    14)     14   86.743(    27)      3  177.616(    39)      0
 ---------------------------------------------------------------------------------------------------
                         Z-Matrix orientation:                         
 ---------------------------------------------------------------------
 Center     Atomic      Atomic             Coordinates (Angstroms)
 Number     Number       Type             X           Y           Z
 ---------------------------------------------------------------------
      1          6           0        0.000000    0.000000    0.000000
      2          6           0        0.000000    0.000000    1.495300
      3          6           0        1.203982    0.000000   -0.811265
      4          1           0       -0.914405    0.309783   -0.490259
      5          8           0        0.591873   -1.206885   -0.642652
      6          6           0        2.651173    0.229235   -0.563704
      7          1           0        0.882833    0.611633   -2.146210
      8          1           0        0.948434   -0.354167    1.891038
      9          1           0       -0.796444   -0.637725    1.876248
     10          1           0       -0.175830    1.011638    1.861048
     11          1           0        3.242816   -0.374822   -1.248724
     12          1           0        2.895596    1.276673   -0.721552
     13          1           0        2.913826   -0.050037    0.458786
     14         -1           0        1.343764    1.455188   -1.870604
     15         17           0        0.567048    1.275771   -3.358497
 ---------------------------------------------------------------------
                    Distance matrix (angstroms):
                    1          2          3          4          5
     1  C    0.000000
     2  C    1.495300   0.000000
     3  C    1.451800   2.601887   0.000000
     4  H    1.082800   2.207837   2.164850   0.000000
     5  O    1.489928   2.525415   1.363700   2.142984   0.000000
     6  C    2.720115   3.364634   1.486000   3.567244   2.511849
     7  H    2.399939   3.796588   1.503100   2.462388   2.377467
     8  H    2.144991   1.087000   2.737367   3.095411   2.697006
     9  H    2.135726   1.089100   3.410443   2.551870   2.931932
    10  H    2.125518   1.090000   3.173098   2.562565   3.432160
    11  H    3.495090   4.264506   2.118656   4.280939   2.843791
    12  H    3.245767   3.863781   2.121202   3.937573   3.388425
    13  H    2.950148   3.093097   2.130516   3.960494   2.818320
    14  X    2.724414   3.905456   1.805356   2.883857   3.026522
    15  Cl   3.637119   5.050592   2.919190   3.369663   3.679676
                    6          7          8          9         10
     6  C    0.000000
     7  H    2.403659   0.000000
     8  H    3.043917   4.151679   0.000000
     9  H    4.311734   4.534428   1.767830   0.000000
    10  H    3.805722   4.163999   1.769263   1.762327   0.000000
    11  H    1.088200   2.710736   3.888794   5.113726   4.824945
    12  H    1.087100   2.554044   3.643721   4.903534   4.021656
    13  H    1.092000   3.368789   2.450838   4.015057   3.555203
    14  X    2.218167   1.000000   4.192851   4.795798   4.053533
    15  Cl   3.640012   1.417900   5.509970   5.737869   5.278758
                   11         12         13         14         15
    11  H    0.000000
    12  H    1.768024   0.000000
    13  H    1.768986   1.775863   0.000000
    14  X    2.709625   1.939167   3.186982   0.000000
    15  Cl   3.786203   3.517899   4.672985   1.687989   0.000000
 Stoichiometry    C4H8ClO(2)
 Framework group  C1[X(C4H8ClO)]
 Deg. of freedom    36
 Full point group                 C1      NOp   1
 Largest Abelian subgroup         C1      NOp   1
 Largest concise Abelian subgroup C1      NOp   1
                         Standard orientation:                         
 ---------------------------------------------------------------------
 Center     Atomic      Atomic             Coordinates (Angstroms)
 Number     Number       Type             X           Y           Z
 ---------------------------------------------------------------------
      1          6           0       -1.123154   -0.762772   -0.051751
      2          6           0       -2.528900   -0.723057   -0.559905
      3          6           0       -0.296705    0.415127    0.141276
      4          1           0       -0.606375   -1.712327   -0.112929
      5          8           0       -0.894036   -0.090569    1.258032
      6          6           0       -0.375598    1.844518   -0.257238
      7          1           0        1.147236    0.009242    0.043289
      8          1           0       -2.969962    0.261551   -0.427312
      9          1           0       -3.143959   -1.453739   -0.036508
     10          1           0       -2.541408   -0.972020   -1.621018
     11          1           0        0.096330    2.465603    0.501522
     12          1           0        0.138447    1.997362   -1.202850
     13          1           0       -1.416978    2.156393   -0.360799
     14         17           0        2.493829   -0.392377   -0.145996
 ---------------------------------------------------------------------
 Rotational constants (GHZ):           4.2915262           1.3014067           1.1607439
 Leave Link  202 at Mon Oct  7 13:15:31 2024, MaxMem=  2684354560 cpu:               0.1 elap:               0.0
 (Enter /gpfs/fs1/soft/bebop/software/custom-built/gaussian/16-c.02/g16/l301.exe)
 Standard basis: CC-pVTZ (5D, 7F)
 Ernie: Thresh=  0.10000D-02 Tol=  0.10000D-05 Strict=F.
 Ernie:  28 primitive shells out of 254 were deleted.
 There are   334 symmetry adapted cartesian basis functions of A   symmetry.
 There are   296 symmetry adapted basis functions of A   symmetry.
   296 basis functions,   490 primitive gaussians,   334 cartesian basis functions
    29 alpha electrons       28 beta electrons
       nuclear repulsion energy       281.1084359124 Hartrees.
 IExCor=  419 DFT=T Ex+Corr=B2PLYPD3 ExCW=0 ScaHFX=  0.530000
 ScaDFX=  0.470000  0.470000  0.730000  0.730000 ScalE2=  0.270000  0.270000
 IRadAn=      5 IRanWt=     -1 IRanGd=            0 ICorTp=0 IEmpDi=141
 NAtoms=   14 NActive=   14 NUniq=   14 SFac= 1.00D+00 NAtFMM=   60 NAOKFM=F Big=F
 Integral buffers will be    131072 words long.
 Regular integral format.
 Two-electron integral symmetry is turned on.
 R6Disp:  Grimme-D3(BJ) Dispersion energy=       -0.0082309310 Hartrees.
 Nuclear repulsion after empirical dispersion term =      281.1002049815 Hartrees.
 Leave Link  301 at Mon Oct  7 13:15:31 2024, MaxMem=  2684354560 cpu:               0.3 elap:               0.1
 (Enter /gpfs/fs1/soft/bebop/software/custom-built/gaussian/16-c.02/g16/l302.exe)
 NPDir=0 NMtPBC=     1 NCelOv=     1 NCel=       1 NClECP=     1 NCelD=      1
         NCelK=      1 NCelE2=     1 NClLst=     1 CellRange=     0.0.
 One-electron integrals computed using PRISM.
 One-electron integral symmetry used in STVInt
 NBasis=   296 RedAO= T EigKep=  3.07D-04  NBF=   296
 NBsUse=   296 1.00D-06 EigRej= -1.00D+00 NBFU=   296
 Precomputing XC quadrature grid using
 IXCGrd= 4 IRadAn=           5 IRanWt=          -1 IRanGd=           0 AccXCQ= 0.00D+00.
 Generated NRdTot=       0 NPtTot=           0 NUsed=           0 NTot=          32
 NSgBfM=   334   334   334   334   334 MxSgAt=    14 MxSgA2=    14.
 Leave Link  302 at Mon Oct  7 13:15:31 2024, MaxMem=  2684354560 cpu:               1.1 elap:               0.2
 (Enter /gpfs/fs1/soft/bebop/software/custom-built/gaussian/16-c.02/g16/l303.exe)
 DipDrv:  MaxL=1.
 Leave Link  303 at Mon Oct  7 13:15:31 2024, MaxMem=  2684354560 cpu:               0.2 elap:               0.1
 (Enter /gpfs/fs1/soft/bebop/software/custom-built/gaussian/16-c.02/g16/l401.exe)
 ExpMin= 1.03D-01 ExpMax= 4.56D+05 ExpMxC= 1.44D+03 IAcc=3 IRadAn=         5 AccDes= 0.00D+00
 Harris functional with IExCor=  419 and IRadAn=       5 diagonalized for initial guess.
 HarFok:  IExCor=  419 AccDes= 0.00D+00 IRadAn=         5 IDoV= 1 UseB2=F ITyADJ=14
 ICtDFT=  3500011 ScaDFX=  1.000000  1.000000  1.000000  1.000000
 FoFCou: FMM=F IPFlag=           0 FMFlag=      100000 FMFlg1=           0
         NFxFlg=           0 DoJE=T BraDBF=F KetDBF=T FulRan=T
         wScrn=  0.000000 ICntrl=       500 IOpCl=  0 I1Cent=   200000004 NGrid=           0
         NMat0=    1 NMatS0=      1 NMatT0=    0 NMatD0=    1 NMtDS0=    0 NMtDT0=    0
 Petite list used in FoFCou.
 Harris En= -692.647549191096    
 JPrj=0 DoOrth=F DoCkMO=F.
 Initial guess <Sx>= 0.0000 <Sy>= 0.0000 <Sz>= 0.5000 <S**2>= 0.7500 S= 0.5000
 Leave Link  401 at Mon Oct  7 13:15:32 2024, MaxMem=  2684354560 cpu:               4.8 elap:               0.8
 (Enter /gpfs/fs1/soft/bebop/software/custom-built/gaussian/16-c.02/g16/l502.exe)
 Keep R1 and R2 ints in memory in canonical form, NReq=1950973320.
 FoFCou: FMM=F IPFlag=           0 FMFlag=           0 FMFlg1=           0
         NFxFlg=           0 DoJE=F BraDBF=F KetDBF=F FulRan=T
         wScrn=  0.000000 ICntrl=       600 IOpCl=  0 I1Cent=           0 NGrid=           0
         NMat0=    1 NMatS0=  43956 NMatT0=    0 NMatD0=    1 NMtDS0=    0 NMtDT0=    0
 Symmetry not used in FoFCou.
 Two-electron integral symmetry not used.
 UHF open shell SCF:
 Using DIIS extrapolation, IDIIS=  1040.
 NGot=  2684354560 LenX=   751952220 LenY=   751840223
 Requested convergence on RMS density matrix=1.00D-08 within  32 cycles.
 Requested convergence on MAX density matrix=1.00D-06.
 Requested convergence on             energy=1.00D-06.
 No special actions if energy rises.
 Integral accuracy reduced to 1.0D-05 until final iterations.

 Cycle   1  Pass 0  IDiag  1:
 E= -691.797307428923    
 DIIS: error= 3.06D-02 at cycle   1 NSaved=   1.
 NSaved= 1 IEnMin= 1 EnMin= -691.797307428923     IErMin= 1 ErrMin= 3.06D-02
 ErrMax= 3.06D-02  0.00D+00 EMaxC= 1.00D-01 BMatC= 1.06D+00 BMatP= 1.06D+00
 IDIUse=3 WtCom= 6.94D-01 WtEn= 3.06D-01
 Coeff-Com:  0.100D+01
 Coeff-En:   0.100D+01
 Coeff:      0.100D+01
 Gap=     0.448 Goal=   None    Shift=    0.000
 Gap=     0.346 Goal=   None    Shift=    0.000
 GapD=    0.346 DampG=1.000 DampE=0.500 DampFc=0.5000 IDamp=-1.
 Damping current iteration by 5.00D-01
 RMSDP=1.47D-03 MaxDP=4.66D-02              OVMax= 1.39D-01

 Cycle   2  Pass 0  IDiag  1:
 E= -691.898279395844     Delta-E=       -0.100971966921 Rises=F Damp=T
 DIIS: error= 8.32D-03 at cycle   2 NSaved=   2.
 NSaved= 2 IEnMin= 2 EnMin= -691.898279395844     IErMin= 2 ErrMin= 8.32D-03
 ErrMax= 8.32D-03  0.00D+00 EMaxC= 1.00D-01 BMatC= 1.19D-01 BMatP= 1.06D+00
 IDIUse=3 WtCom= 9.17D-01 WtEn= 8.32D-02
 Coeff-Com: -0.268D+00 0.127D+01
 Coeff-En:   0.000D+00 0.100D+01
 Coeff:     -0.246D+00 0.125D+01
 Gap=     0.358 Goal=   None    Shift=    0.000
 Gap=     0.330 Goal=   None    Shift=    0.000
 RMSDP=3.94D-04 MaxDP=1.73D-02 DE=-1.01D-01 OVMax= 6.48D-02

 Cycle   3  Pass 0  IDiag  1:
 E= -691.987214267819     Delta-E=       -0.088934871975 Rises=F Damp=F
 DIIS: error= 2.13D-03 at cycle   3 NSaved=   3.
 NSaved= 3 IEnMin= 3 EnMin= -691.987214267819     IErMin= 3 ErrMin= 2.13D-03
 ErrMax= 2.13D-03  0.00D+00 EMaxC= 1.00D-01 BMatC= 1.05D-02 BMatP= 1.19D-01
 IDIUse=3 WtCom= 9.79D-01 WtEn= 2.13D-02
 Coeff-Com: -0.117D+00 0.255D+00 0.862D+00
 Coeff-En:   0.000D+00 0.000D+00 0.100D+01
 Coeff:     -0.115D+00 0.249D+00 0.865D+00
 Gap=     0.352 Goal=   None    Shift=    0.000
 Gap=     0.295 Goal=   None    Shift=    0.000
 RMSDP=1.46D-04 MaxDP=5.50D-03 DE=-8.89D-02 OVMax= 1.81D-02

 Cycle   4  Pass 0  IDiag  1:
 E= -691.989266130480     Delta-E=       -0.002051862661 Rises=F Damp=F
 DIIS: error= 1.50D-03 at cycle   4 NSaved=   4.
 NSaved= 4 IEnMin= 4 EnMin= -691.989266130480     IErMin= 4 ErrMin= 1.50D-03
 ErrMax= 1.50D-03  0.00D+00 EMaxC= 1.00D-01 BMatC= 2.81D-03 BMatP= 1.05D-02
 IDIUse=3 WtCom= 9.85D-01 WtEn= 1.50D-02
 Coeff-Com: -0.448D-01 0.784D-01 0.420D+00 0.547D+00
 Coeff-En:   0.000D+00 0.000D+00 0.000D+00 0.100D+01
 Coeff:     -0.441D-01 0.773D-01 0.413D+00 0.554D+00
 Gap=     0.353 Goal=   None    Shift=    0.000
 Gap=     0.292 Goal=   None    Shift=    0.000
 RMSDP=6.18D-05 MaxDP=2.83D-03 DE=-2.05D-03 OVMax= 9.97D-03

 Cycle   5  Pass 0  IDiag  1:
 E= -691.989810548546     Delta-E=       -0.000544418066 Rises=F Damp=F
 DIIS: error= 3.91D-04 at cycle   5 NSaved=   5.
 NSaved= 5 IEnMin= 5 EnMin= -691.989810548546     IErMin= 5 ErrMin= 3.91D-04
 ErrMax= 3.91D-04  0.00D+00 EMaxC= 1.00D-01 BMatC= 3.37D-04 BMatP= 2.81D-03
 IDIUse=3 WtCom= 9.96D-01 WtEn= 3.91D-03
 Coeff-Com:  0.696D-03-0.105D-01 0.268D-01 0.241D+00 0.742D+00
 Coeff-En:   0.000D+00 0.000D+00 0.000D+00 0.000D+00 0.100D+01
 Coeff:      0.693D-03-0.104D-01 0.267D-01 0.240D+00 0.743D+00
 Gap=     0.354 Goal=   None    Shift=    0.000
 Gap=     0.293 Goal=   None    Shift=    0.000
 RMSDP=2.58D-05 MaxDP=1.64D-03 DE=-5.44D-04 OVMax= 3.19D-03

 Cycle   6  Pass 0  IDiag  1:
 E= -691.989900399082     Delta-E=       -0.000089850536 Rises=F Damp=F
 DIIS: error= 1.53D-04 at cycle   6 NSaved=   6.
 NSaved= 6 IEnMin= 6 EnMin= -691.989900399082     IErMin= 6 ErrMin= 1.53D-04
 ErrMax= 1.53D-04  0.00D+00 EMaxC= 1.00D-01 BMatC= 3.00D-05 BMatP= 3.37D-04
 IDIUse=3 WtCom= 9.98D-01 WtEn= 1.53D-03
 Coeff-Com:  0.790D-02-0.162D-01-0.691D-01-0.251D-01 0.133D+00 0.970D+00
 Coeff-En:   0.000D+00 0.000D+00 0.000D+00 0.000D+00 0.000D+00 0.100D+01
 Coeff:      0.789D-02-0.162D-01-0.690D-01-0.250D-01 0.132D+00 0.970D+00
 Gap=     0.354 Goal=   None    Shift=    0.000
 Gap=     0.295 Goal=   None    Shift=    0.000
 RMSDP=1.51D-05 MaxDP=7.99D-04 DE=-8.99D-05 OVMax= 2.31D-03

 Cycle   7  Pass 0  IDiag  1:
 E= -691.989920674124     Delta-E=       -0.000020275042 Rises=F Damp=F
 DIIS: error= 5.17D-05 at cycle   7 NSaved=   7.
 NSaved= 7 IEnMin= 7 EnMin= -691.989920674124     IErMin= 7 ErrMin= 5.17D-05
 ErrMax= 5.17D-05  0.00D+00 EMaxC= 1.00D-01 BMatC= 7.03D-06 BMatP= 3.00D-05
 IDIUse=1 WtCom= 1.00D+00 WtEn= 0.00D+00
 Coeff-Com:  0.186D-02-0.208D-02-0.255D-01-0.364D-01-0.893D-01 0.246D+00
 Coeff-Com:  0.906D+00
 Coeff:      0.186D-02-0.208D-02-0.255D-01-0.364D-01-0.893D-01 0.246D+00
 Coeff:      0.906D+00
 Gap=     0.355 Goal=   None    Shift=    0.000
 Gap=     0.295 Goal=   None    Shift=    0.000
 RMSDP=7.51D-06 MaxDP=5.33D-04 DE=-2.03D-05 OVMax= 1.39D-03

 Initial convergence to 1.0D-05 achieved.  Increase integral accuracy.
 Cycle   8  Pass 1  IDiag  1:
 E= -691.989930479279     Delta-E=       -0.000009805155 Rises=F Damp=F
 DIIS: error= 4.14D-05 at cycle   1 NSaved=   1.
 NSaved= 1 IEnMin= 1 EnMin= -691.989930479279     IErMin= 1 ErrMin= 4.14D-05
 ErrMax= 4.14D-05  0.00D+00 EMaxC= 1.00D-01 BMatC= 1.40D-06 BMatP= 1.40D-06
 IDIUse=1 WtCom= 1.00D+00 WtEn= 0.00D+00
 Coeff-Com:  0.100D+01
 Coeff:      0.100D+01
 Gap=     0.355 Goal=   None    Shift=    0.000
 Gap=     0.295 Goal=   None    Shift=    0.000
 RMSDP=7.51D-06 MaxDP=5.33D-04 DE=-9.81D-06 OVMax= 5.85D-04

 Cycle   9  Pass 1  IDiag  1:
 E= -691.989931265230     Delta-E=       -0.000000785950 Rises=F Damp=F
 DIIS: error= 2.65D-05 at cycle   2 NSaved=   2.
 NSaved= 2 IEnMin= 2 EnMin= -691.989931265230     IErMin= 2 ErrMin= 2.65D-05
 ErrMax= 2.65D-05  0.00D+00 EMaxC= 1.00D-01 BMatC= 8.40D-07 BMatP= 1.40D-06
 IDIUse=1 WtCom= 1.00D+00 WtEn= 0.00D+00
 Coeff-Com:  0.385D+00 0.615D+00
 Coeff:      0.385D+00 0.615D+00
 Gap=     0.355 Goal=   None    Shift=    0.000
 Gap=     0.295 Goal=   None    Shift=    0.000
 RMSDP=1.44D-06 MaxDP=7.44D-05 DE=-7.86D-07 OVMax= 2.61D-04

 Cycle  10  Pass 1  IDiag  1:
 E= -691.989931585834     Delta-E=       -0.000000320605 Rises=F Damp=F
 DIIS: error= 1.77D-05 at cycle   3 NSaved=   3.
 NSaved= 3 IEnMin= 3 EnMin= -691.989931585834     IErMin= 3 ErrMin= 1.77D-05
 ErrMax= 1.77D-05  0.00D+00 EMaxC= 1.00D-01 BMatC= 2.06D-07 BMatP= 8.40D-07
 IDIUse=1 WtCom= 1.00D+00 WtEn= 0.00D+00
 Coeff-Com: -0.623D+00-0.206D+00 0.183D+01
 Coeff:     -0.623D+00-0.206D+00 0.183D+01
 Gap=     0.355 Goal=   None    Shift=    0.000
 Gap=     0.295 Goal=   None    Shift=    0.000
 RMSDP=2.45D-06 MaxDP=1.23D-04 DE=-3.21D-07 OVMax= 5.95D-04

 Cycle  11  Pass 1  IDiag  1:
 E= -691.989931858530     Delta-E=       -0.000000272696 Rises=F Damp=F
 DIIS: error= 5.67D-06 at cycle   4 NSaved=   4.
 NSaved= 4 IEnMin= 4 EnMin= -691.989931858530     IErMin= 4 ErrMin= 5.67D-06
 ErrMax= 5.67D-06  0.00D+00 EMaxC= 1.00D-01 BMatC= 2.41D-08 BMatP= 2.06D-07
 IDIUse=1 WtCom= 1.00D+00 WtEn= 0.00D+00
 Coeff-Com: -0.284D+00-0.139D+00 0.747D+00 0.676D+00
 Coeff:     -0.284D+00-0.139D+00 0.747D+00 0.676D+00
 Gap=     0.355 Goal=   None    Shift=    0.000
 Gap=     0.295 Goal=   None    Shift=    0.000
 RMSDP=3.55D-07 MaxDP=2.23D-05 DE=-2.73D-07 OVMax= 8.48D-05

 Cycle  12  Pass 1  IDiag  1:
 E= -691.989931868505     Delta-E=       -0.000000009974 Rises=F Damp=F
 DIIS: error= 1.58D-06 at cycle   5 NSaved=   5.
 NSaved= 5 IEnMin= 5 EnMin= -691.989931868505     IErMin= 5 ErrMin= 1.58D-06
 ErrMax= 1.58D-06  0.00D+00 EMaxC= 1.00D-01 BMatC= 4.98D-09 BMatP= 2.41D-08
 IDIUse=1 WtCom= 1.00D+00 WtEn= 0.00D+00
 Coeff-Com: -0.357D-01-0.350D-01 0.586D-01 0.305D+00 0.707D+00
 Coeff:     -0.357D-01-0.350D-01 0.586D-01 0.305D+00 0.707D+00
 Gap=     0.355 Goal=   None    Shift=    0.000
 Gap=     0.295 Goal=   None    Shift=    0.000
 RMSDP=1.29D-07 MaxDP=6.14D-06 DE=-9.97D-09 OVMax= 1.85D-05

 Cycle  13  Pass 1  IDiag  1:
 E= -691.989931869945     Delta-E=       -0.000000001441 Rises=F Damp=F
 DIIS: error= 6.10D-07 at cycle   6 NSaved=   6.
 NSaved= 6 IEnMin= 6 EnMin= -691.989931869945     IErMin= 6 ErrMin= 6.10D-07
 ErrMax= 6.10D-07  0.00D+00 EMaxC= 1.00D-01 BMatC= 7.03D-10 BMatP= 4.98D-09
 IDIUse=1 WtCom= 1.00D+00 WtEn= 0.00D+00
 Coeff-Com:  0.645D-01 0.239D-01-0.178D+00-0.483D-01 0.261D+00 0.877D+00
 Coeff:      0.645D-01 0.239D-01-0.178D+00-0.483D-01 0.261D+00 0.877D+00
 Gap=     0.355 Goal=   None    Shift=    0.000
 Gap=     0.295 Goal=   None    Shift=    0.000
 RMSDP=5.98D-08 MaxDP=3.60D-06 DE=-1.44D-09 OVMax= 7.67D-06

 Cycle  14  Pass 1  IDiag  1:
 E= -691.989931870207     Delta-E=       -0.000000000262 Rises=F Damp=F
 DIIS: error= 3.05D-07 at cycle   7 NSaved=   7.
 NSaved= 7 IEnMin= 7 EnMin= -691.989931870207     IErMin= 7 ErrMin= 3.05D-07
 ErrMax= 3.05D-07  0.00D+00 EMaxC= 1.00D-01 BMatC= 9.65D-11 BMatP= 7.03D-10
 IDIUse=1 WtCom= 1.00D+00 WtEn= 0.00D+00
 Coeff-Com:  0.269D-01 0.121D-01-0.710D-01-0.544D-01 0.135D-01 0.308D+00
 Coeff-Com:  0.764D+00
 Coeff:      0.269D-01 0.121D-01-0.710D-01-0.544D-01 0.135D-01 0.308D+00
 Coeff:      0.764D+00
 Gap=     0.355 Goal=   None    Shift=    0.000
 Gap=     0.295 Goal=   None    Shift=    0.000
 RMSDP=1.89D-08 MaxDP=1.10D-06 DE=-2.62D-10 OVMax= 2.86D-06

 Cycle  15  Pass 1  IDiag  1:
 E= -691.989931870249     Delta-E=       -0.000000000042 Rises=F Damp=F
 DIIS: error= 9.76D-08 at cycle   8 NSaved=   8.
 NSaved= 8 IEnMin= 8 EnMin= -691.989931870249     IErMin= 8 ErrMin= 9.76D-08
 ErrMax= 9.76D-08  0.00D+00 EMaxC= 1.00D-01 BMatC= 1.27D-11 BMatP= 9.65D-11
 IDIUse=1 WtCom= 1.00D+00 WtEn= 0.00D+00
 Coeff-Com: -0.144D-01-0.497D-02 0.406D-01 0.773D-02-0.517D-01-0.206D+00
 Coeff-Com:  0.347D-01 0.119D+01
 Coeff:     -0.144D-01-0.497D-02 0.406D-01 0.773D-02-0.517D-01-0.206D+00
 Coeff:      0.347D-01 0.119D+01
 Gap=     0.355 Goal=   None    Shift=    0.000
 Gap=     0.295 Goal=   None    Shift=    0.000
 RMSDP=1.23D-08 MaxDP=5.78D-07 DE=-4.18D-11 OVMax= 1.44D-06

 Cycle  16  Pass 1  IDiag  1:
 E= -691.989931870256     Delta-E=       -0.000000000007 Rises=F Damp=F
 DIIS: error= 2.54D-08 at cycle   9 NSaved=   9.
 NSaved= 9 IEnMin= 9 EnMin= -691.989931870256     IErMin= 9 ErrMin= 2.54D-08
 ErrMax= 2.54D-08  0.00D+00 EMaxC= 1.00D-01 BMatC= 9.00D-13 BMatP= 1.27D-11
 IDIUse=1 WtCom= 1.00D+00 WtEn= 0.00D+00
 Coeff-Com: -0.164D-02-0.609D-03 0.384D-02 0.428D-02 0.290D-02-0.230D-01
 Coeff-Com: -0.638D-01-0.478D-01 0.113D+01
 Coeff:     -0.164D-02-0.609D-03 0.384D-02 0.428D-02 0.290D-02-0.230D-01
 Coeff:     -0.638D-01-0.478D-01 0.113D+01
 Gap=     0.355 Goal=   None    Shift=    0.000
 Gap=     0.295 Goal=   None    Shift=    0.000
 RMSDP=3.29D-09 MaxDP=1.56D-07 DE=-7.28D-12 OVMax= 5.15D-07

 SCF Done:  E(UB2PLYPD3) =  -691.989931870     A.U. after   16 cycles
            NFock= 16  Conv=0.33D-08     -V/T= 2.0027
 <Sx>= 0.0000 <Sy>= 0.0000 <Sz>= 0.5000 <S**2>= 0.7605 S= 0.5053
 <L.S>=  0.00000000000    
 KE= 6.901606008061D+02 PE=-2.197359791213D+03 EE= 5.341090535550D+02
 Annihilation of the first spin contaminant:
 S**2 before annihilation     0.7605,   after     0.7501
 Leave Link  502 at Mon Oct  7 13:16:41 2024, MaxMem=  2684354560 cpu:             182.9 elap:              69.3
 (Enter /gpfs/fs1/soft/bebop/software/custom-built/gaussian/16-c.02/g16/l508.exe)
 QCSCF skips out because SCF is already converged.
 Leave Link  508 at Mon Oct  7 13:16:41 2024, MaxMem=  2684354560 cpu:               0.0 elap:               0.0
 (Enter /gpfs/fs1/soft/bebop/software/custom-built/gaussian/16-c.02/g16/l801.exe)
 DoSCS=T DFT=T ScalE2(SS,OS)=  0.270000  0.270000
 ExpMin= 1.03D-01 ExpMax= 4.56D+05 ExpMxC= 1.44D+03 IAcc=3 IRadAn=         5 AccDes= 0.00D+00
 HarFok:  IExCor=  205 AccDes= 0.00D+00 IRadAn=         5 IDoV=-2 UseB2=F ITyADJ=14
 ICtDFT= 12500011 ScaDFX=  1.000000  1.000000  1.000000  1.000000
 Largest valence mixing into a core orbital is  1.84D-04
 Largest core mixing into a valence orbital is  5.98D-05
 Largest valence mixing into a core orbital is  1.87D-04
 Largest core mixing into a valence orbital is  5.93D-05
 Range of M.O.s used for correlation:    11   296
 NBasis=   296 NAE=    29 NBE=    28 NFC=    10 NFV=     0
 NROrb=    286 NOA=    19 NOB=    18 NVA=   267 NVB=   268

 **** Warning!!: The largest alpha MO coefficient is  0.11951165D+02


 **** Warning!!: The largest beta MO coefficient is  0.12034708D+02

 Leave Link  801 at Mon Oct  7 13:16:41 2024, MaxMem=  2684354560 cpu:               0.5 elap:               0.1
 (Enter /gpfs/fs1/soft/bebop/software/custom-built/gaussian/16-c.02/g16/l906.exe)
 DoSCS=T DFT=T ScalE2(SS,OS)=  0.270000  0.270000
 Frozen-core derivative calculation, NFC=  10 NFV=   0.
 FulOut=F Deriv=T AODrv=T NAtomX=    14
   MMem=           0  MDisk=          19 MDiskD=          19
  W3Min=     5734112 MinDsk=     8928555 NBas6D=         334
 NBas2D=       56620    NTT=       55945    LW2=     7400000
    MDV=  2682916650 MDiskM=       40133 NBas2p=       55546
 Disk-based method using ON**2 memory for 19 occupieds at a time.
 Permanent disk used for amplitudes=    86045022 words.
 Estimated scratch disk usage=  1261148536 words.
 IMap=   1   2   3   4   5   6   7   8   9  10  11  12  13  14  15  16  17  18  19  20
 IMap=  21  22  23  24  25  26  27  28  29
 Actual    scratch disk usage=  1219364216 words.
 JobTyp=2 Pass  1:  I=  11 to  29 NPSUse=  6 ParTrn=T ParDer=T DoDerP=T.
 (rs|ai) integrals will be sorted in core.
 IMap=   1   2   3   4   5   6   7   8   9  10  11  12  13  14  15  16  17  18  19  20
 IMap=  21  22  23  24  25  26  27  28
 Actual    scratch disk usage=  1219364216 words.
 JobTyp=3 Pass  1:  I=  11 to  28 NPSUse=  6 ParTrn=T ParDer=T DoDerP=T.
 (rs|ai) integrals will be sorted in core.
 Spin components of T(2) and E(2):
     alpha-alpha T2 =       0.6862321831D-01 E2=     -0.4596533049D-01
     alpha-beta  T2 =       0.3885610830D+00 E2=     -0.2754718698D+00
     beta-beta   T2 =       0.7067279084D-01 E2=     -0.4403315022D-01
 The integrals were generated   2 times.
 (S**2,0)=  0.76053D+00           (S**2,1)=  0.74479D+00
 Scaling Projection term by:   0.270000
 E(PUHF)=      -0.69199344051D+03        E(PMP2)=      -0.69235564451D+03
 E2(B2PLYPD3) =    -0.3654703505D+00 E(B2PLYPD3) =    -0.69235540222075D+03
 Leave Link  906 at Mon Oct  7 13:49:13 2024, MaxMem=  2684354560 cpu:           11683.4 elap:            1951.5
 (Enter /gpfs/fs1/soft/bebop/software/custom-built/gaussian/16-c.02/g16/l1101.exe)
 Using compressed Sx but separate Hx and Fx, NAtomX=    14.
 Will process     15 centers per pass.
 R6Disp: Adding Grimme-D3(BJ) dispersion energy 1st derivatives to the gradient.
 Leave Link 1101 at Mon Oct  7 13:49:13 2024, MaxMem=  2684354560 cpu:               1.1 elap:               0.2
 (Enter /gpfs/fs1/soft/bebop/software/custom-built/gaussian/16-c.02/g16/l1102.exe)
 Leave Link 1102 at Mon Oct  7 13:49:13 2024, MaxMem=  2684354560 cpu:               0.1 elap:               0.0
 (Enter /gpfs/fs1/soft/bebop/software/custom-built/gaussian/16-c.02/g16/l1110.exe)
 Forming Gx(P) for the SCF density, NAtomX=    14.
 Integral derivatives from FoFJK, PRISM(SPDF).
 Do as many integral derivatives as possible in FoFJK.
 G2DrvN: MDV=    2684352982.
 G2DrvN: will do    15 centers at a time, making    1 passes.
 Calling FoFCou, ICntrl=  3107 FMM=F I1Cent=   0 AccDes= 0.00D+00.
 FoFJK:  IHMeth= 1 ICntrl=    3107 DoSepK=F KAlg= 0 I1Cent=           0 FoldK=F
 IRaf=         0 NMat=       1 IRICut=       1 DoRegI=T DoRafI=F ISym2E= 0 IDoP0=0 IntGTp=1.
 FoFCou: FMM=F IPFlag=           0 FMFlag=      100000 FMFlg1=           0
         NFxFlg=           0 DoJE=F BraDBF=F KetDBF=F FulRan=T
         wScrn=  0.000000 ICntrl=      3107 IOpCl=  1 I1Cent=           0 NGrid=           0
         NMat0=    1 NMatS0=      1 NMatT0=    0 NMatD0=    1 NMtDS0=    0 NMtDT0=    0
 Symmetry not used in FoFCou.
 End of G2Drv F.D. properties file   721 does not exist.
 End of G2Drv F.D. properties file   722 does not exist.
 End of G2Drv F.D. properties file   788 does not exist.
 Leave Link 1110 at Mon Oct  7 13:50:39 2024, MaxMem=  2684354560 cpu:             515.2 elap:              86.1
 (Enter /gpfs/fs1/soft/bebop/software/custom-built/gaussian/16-c.02/g16/l1002.exe)
 Minotr:  UHF open shell wavefunction.
          IDoAtm=11111111111111
          Frozen-core window.
          Direct CPHF calculation.
          Differentiating once with respect to electric field.
                with respect to dipole field.
          Differentiating once with respect to nuclear coordinates.
          Requested convergence is 1.0D-08 RMS, and 1.0D-07 maximum.
          Secondary convergence is 1.0D-12 RMS, and 1.0D-12 maximum.
          NewPWx=T KeepS1=T KeepF1=T KeepIn=T MapXYZ=F SortEE=F KeepMc=T.
         4152 words used for storage of precomputed grid.
 Keep R1 and R2 ints in memory in canonical form, NReq=1950980016.
 FoFCou: FMM=F IPFlag=           0 FMFlag=           0 FMFlg1=           0
         NFxFlg=           0 DoJE=F BraDBF=F KetDBF=F FulRan=T
         wScrn=  0.000000 ICntrl=       600 IOpCl=  0 I1Cent=           0 NGrid=           0
         NMat0=    1 NMatS0=  43956 NMatT0=    0 NMatD0=    1 NMtDS0=    0 NMtDT0=    0
 Symmetry not used in FoFCou.
 Two-electron integral symmetry not used.
          MDV=    2684354560 using IRadAn=       1.
          Solving linear equations simultaneously, MaxMat=       0.
          There are    45 degrees of freedom in the 1st order CPHF.  IDoFFX=6 NUNeed=    45.
     42 vectors produced by pass  0 Test12= 3.39D-14 2.22D-09 XBig12= 7.73D+01 3.40D+00.
 AX will form    42 AO Fock derivatives at one time.
     42 vectors produced by pass  1 Test12= 3.39D-14 2.22D-09 XBig12= 7.43D+00 4.12D-01.
     42 vectors produced by pass  2 Test12= 3.39D-14 2.22D-09 XBig12= 4.77D-01 1.04D-01.
     42 vectors produced by pass  3 Test12= 3.39D-14 2.22D-09 XBig12= 1.01D-02 1.18D-02.
     42 vectors produced by pass  4 Test12= 3.39D-14 2.22D-09 XBig12= 1.59D-04 1.30D-03.
     42 vectors produced by pass  5 Test12= 3.39D-14 2.22D-09 XBig12= 2.26D-06 1.57D-04.
     42 vectors produced by pass  6 Test12= 3.39D-14 2.22D-09 XBig12= 3.09D-08 1.73D-05.
     20 vectors produced by pass  7 Test12= 3.39D-14 2.22D-09 XBig12= 2.10D-10 1.15D-06.
      3 vectors produced by pass  8 Test12= 3.39D-14 2.22D-09 XBig12= 2.03D-12 1.19D-07.
      2 vectors produced by pass  9 Test12= 3.39D-14 2.22D-09 XBig12= 2.08D-14 1.73D-08.
 InvSVY:  IOpt=1 It=  1 EMax= 9.77D-15
 Solved reduced A of dimension   319 with    45 vectors.
 FullF1:  Do perturbations      1 to      45.
 Saving first derivative matrices.
 End of Minotr F.D. properties file   721 does not exist.
 End of Minotr F.D. properties file   722 does not exist.
 End of Minotr F.D. properties file   788 does not exist.
 Leave Link 1002 at Mon Oct  7 13:53:02 2024, MaxMem=  2684354560 cpu:             852.1 elap:             143.1
 (Enter /gpfs/fs1/soft/bebop/software/custom-built/gaussian/16-c.02/g16/l811.exe)
 MDV=  2684354560.
 DoSCS=T DFT=T ScalE2(SS,OS)=  0.270000  0.270000
 Form MO integral derivatives with frozen-active canonical formalism.
 MOERI=1 MOERIx=1 NAtoms=    14 NAtomX=    14.
 Discarding MO integrals.
 MO basis two electron integral derivatives will not be stored on disk.
 IAlg= 3 DoFC=T DoPWx=T Debug=F.
 Frozen-core window:  NFC=  10 NFV=   0.
 Reordered first order wavefunction length =    346421397
 In DefCFB: NBatch=  1 ICI= 29 ICA=268 LFMax= 54
            Large arrays: LIAPS=  6029517632 LIARS=  1417333008 words.
 In StABat: MaxSiz= 39 MinSiz= 30 NAtomB= 10
 DoIAMN: NPSUse=  6.
 In DefCFB: NBatch=  1 ICI= 29 ICA=268 LFMax= 54
            Large arrays: LIAPS=  6029517632 LIARS=  1417333008 words.
 In StABat: MaxSiz= 39 MinSiz= 30 NAtomB= 10
 Leave Link  811 at Mon Oct  7 14:19:06 2024, MaxMem=  2684354560 cpu:            9362.2 elap:            1563.9
 (Enter /gpfs/fs1/soft/bebop/software/custom-built/gaussian/16-c.02/g16/l804.exe)
 Frozen-core window:  NFC=  10 NFV=   0.
 Open-shell transformation, MDV=  2684354560 ITran=4 ISComp=1.
 Semi-Direct transformation.
 ModeAB=           4 MOrb=            29 LenV=    2681688816
 LASXX=    352559467 LTotXX=   352559467 LenRXX=   712031635
 LTotAB=   359472168 MaxLAS=   462196896 LenRXY=           0
 NonZer=  1064591102 LenScr=  1603149824 LnRSAI=   462196896
 LnScr1=   696014848 LExtra=           0 Total=   3473393203
 MaxDsk=          -1 SrtSym=           T ITran=            4
 DoSDTr:  NPSUse=  6
 JobTyp=1 Pass  1:  I=   1 to  29.
 (rs|ai) integrals will be sorted in core.
 Complete sort for first half transformation.
 First half transformation complete.
 Begin second half transformation for I=  10.
 Begin second half transformation for I=  20.
 Complete sort for second half transformation.
 Second half transformation complete.
 ModeAB=           4 MOrb=            28 LenV=    2681688816
 LASXX=    341220355 LTotXX=   341220355 LenRXX=   624224335
 LTotAB=   283003980 MaxLAS=   446259072 LenRXY=           0
 NonZer=   965444690 LenScr=  1453846528 LnRSAI=   446259072
 LnScr1=   672014336 LExtra=           0 Total=   3196344271
 MaxDsk=          -1 SrtSym=           T ITran=            4
 DoSDTr:  NPSUse=  6
 JobTyp=2 Pass  1:  I=   1 to  28.
 (rs|ai) integrals will be sorted in core.
 Complete sort for first half transformation.
 First half transformation complete.
 Begin second half transformation for I=  10.
 Begin second half transformation for I=  20.
 Complete sort for second half transformation.
 Second half transformation complete.
 SymMOI:  orbitals are not symmetric.
 DoSCS=T DFT=T ScalE2(SS,OS)=  0.270000  0.270000
 Spin components of T(2) and E(2):
     alpha-alpha T2 =       0.6862321831D-01 E2=     -0.4596533049D-01
     alpha-beta  T2 =       0.3885610830D+00 E2=     -0.2754718698D+00
     beta-beta   T2 =       0.7067279084D-01 E2=     -0.4403315022D-01
 E2(B2PLYPD3) =    -0.3654703505D+00 E(B2PLYPD3) =    -0.69235540222075D+03
 (S**2,0)=  0.76053D+00           (S**2,1)=  0.74479D+00
 Scaling Projection term by:   0.270000
 E(PUHF)=      -0.69199344051D+03        E(PMP2)=      -0.69235564451D+03
 Leave Link  804 at Mon Oct  7 14:21:58 2024, MaxMem=  2684354560 cpu:            1026.5 elap:             171.5
 (Enter /gpfs/fs1/soft/bebop/software/custom-built/gaussian/16-c.02/g16/l1002.exe)
 Minotr:  UHF open shell wavefunction.
          Computing MP2/KS-MP2 derivatives.
          Using Z-Vector for PSCF gradient.
          Skipping F1 and S1 gradient terms here.
          IDoAtm=11111111111111
          Frozen-core window.
          Direct CPHF calculation.
          Differentiating once with respect to electric field.
                with respect to dipole field.
          Differentiating once with respect to nuclear coordinates.
          Requested convergence is 1.0D-10 RMS, and 1.0D-09 maximum.
          NewPWx=T KeepS1=F KeepF1=F KeepIn=T MapXYZ=F SortEE=F KeepMc=T.
 Keep R1 and R2 ints in memory in canonical form, NReq=1950975864.
 FoFCou: FMM=F IPFlag=           0 FMFlag=           0 FMFlg1=           0
         NFxFlg=           0 DoJE=F BraDBF=F KetDBF=F FulRan=T
         wScrn=  0.000000 ICntrl=       600 IOpCl=  0 I1Cent=           0 NGrid=           0
         NMat0=    1 NMatS0=  43956 NMatT0=    0 NMatD0=    1 NMtDS0=    0 NMtDT0=    0
 Symmetry not used in FoFCou.
 Two-electron integral symmetry not used.
          MDV=    2684354560 using IRadAn=       5.
          Solving linear equations separately, MaxMat=       0.
          There are     1 degrees of freedom in the 1st order CPHF.  IDoFFX=0 NUNeed=     1.
 LinEq1:  Iter=  0 NonCon=     1 RMS=7.40D-04 Max=3.26D-02 NDo=     1
 AX will form     1 AO Fock derivatives at one time.
 LinEq1:  Iter=  1 NonCon=     1 RMS=3.26D-04 Max=5.14D-03 NDo=     1
 LinEq1:  Iter=  2 NonCon=     1 RMS=1.95D-04 Max=9.77D-03 NDo=     1
 LinEq1:  Iter=  3 NonCon=     1 RMS=1.10D-04 Max=2.14D-03 NDo=     1
 LinEq1:  Iter=  4 NonCon=     1 RMS=4.72D-05 Max=1.90D-03 NDo=     1
 LinEq1:  Iter=  5 NonCon=     1 RMS=1.92D-05 Max=4.51D-04 NDo=     1
 LinEq1:  Iter=  6 NonCon=     1 RMS=7.70D-06 Max=1.83D-04 NDo=     1
 LinEq1:  Iter=  7 NonCon=     1 RMS=3.27D-06 Max=6.98D-05 NDo=     1
 LinEq1:  Iter=  8 NonCon=     1 RMS=1.47D-06 Max=2.91D-05 NDo=     1
 LinEq1:  Iter=  9 NonCon=     1 RMS=5.52D-07 Max=1.17D-05 NDo=     1
 LinEq1:  Iter= 10 NonCon=     1 RMS=2.56D-07 Max=4.04D-06 NDo=     1
 LinEq1:  Iter= 11 NonCon=     1 RMS=9.82D-08 Max=2.75D-06 NDo=     1
 LinEq1:  Iter= 12 NonCon=     1 RMS=4.15D-08 Max=1.07D-06 NDo=     1
 LinEq1:  Iter= 13 NonCon=     1 RMS=1.38D-08 Max=2.85D-07 NDo=     1
 LinEq1:  Iter= 14 NonCon=     1 RMS=4.12D-09 Max=8.20D-08 NDo=     1
 LinEq1:  Iter= 15 NonCon=     1 RMS=1.75D-09 Max=3.15D-08 NDo=     1
 LinEq1:  Iter= 16 NonCon=     1 RMS=5.00D-10 Max=7.90D-09 NDo=     1
 LinEq1:  Iter= 17 NonCon=     1 RMS=1.38D-10 Max=2.56D-09 NDo=     1
 LinEq1:  Iter= 18 NonCon=     0 RMS=5.42D-11 Max=9.00D-10 NDo=     1
 Linear equations converged to 1.000D-10 1.000D-09 after    18 iterations.
 End of Minotr F.D. properties file   721 does not exist.
 End of Minotr F.D. properties file   722 does not exist.
 End of Minotr F.D. properties file   788 does not exist.
 Leave Link 1002 at Mon Oct  7 14:23:42 2024, MaxMem=  2684354560 cpu:             344.0 elap:             104.4
 (Enter /gpfs/fs1/soft/bebop/software/custom-built/gaussian/16-c.02/g16/l1102.exe)
 Use density number 2.
 Symmetrizing basis deriv contribution to polar:
 IMax=3 JMax=2 DiffMx= 0.00D+00
 Leave Link 1102 at Mon Oct  7 14:23:42 2024, MaxMem=  2684354560 cpu:               0.2 elap:               0.1
 (Enter /gpfs/fs1/soft/bebop/software/custom-built/gaussian/16-c.02/g16/l1110.exe)
 Forming Gx(P) for generalized density number  2 NAtomX=    14.
 Integral derivatives from FoFJK, PRISM(SPDF).
 Do as many integral derivatives as possible in FoFJK.
 G2DrvN: MDV=    2684352982.
 G2DrvN: will do    15 centers at a time, making    1 passes.
 Calling FoFCou, ICntrl=  3107 FMM=F I1Cent=   0 AccDes= 0.00D+00.
 FoFJK:  IHMeth= 1 ICntrl=    3107 DoSepK=F KAlg= 0 I1Cent=           0 FoldK=F
 IRaf=         0 NMat=       1 IRICut=       1 DoRegI=T DoRafI=F ISym2E= 0 IDoP0=0 IntGTp=1.
 FoFCou: FMM=F IPFlag=           0 FMFlag=      100000 FMFlg1=           0
         NFxFlg=           0 DoJE=F BraDBF=F KetDBF=F FulRan=T
         wScrn=  0.000000 ICntrl=      3107 IOpCl=  1 I1Cent=           0 NGrid=           0
         NMat0=    1 NMatS0=      1 NMatT0=    0 NMatD0=    1 NMtDS0=    0 NMtDT0=    0
 Symmetry not used in FoFCou.
 End of G2Drv F.D. properties file   721 does not exist.
 End of G2Drv F.D. properties file   722 does not exist.
 End of G2Drv F.D. properties file   788 does not exist.
 Leave Link 1110 at Mon Oct  7 14:25:10 2024, MaxMem=  2684354560 cpu:             524.7 elap:              87.7
 (Enter /gpfs/fs1/soft/bebop/software/custom-built/gaussian/16-c.02/g16/l1112.exe)
 MP22nd: MDV=    2684354560
 DoSCS=T DFT=T ScalE2(SS,OS)=  0.270000  0.270000
 This link is doing NAtomX=    14 total of    45 degrees of freedom.
 Using ON3 I/O method in MakUI.
 Frozen-core window:  NFC=  10 NFV=   0.
 Using Ix for Sx.
 Use MO integrals over full window.
 Using OV2 memory method for fx*t*t/D, MaxI=    28 DoOO2=F NP=   6.
 Would need an additional   464343840 words for in-memory AO integral storage.
 DD1Dir will call FoFJK   4 times, MxPair=       602
 NAB=   812 NAA=   406 NBB=   378 NumPrc=  6.
 DD1Dir:  Pass   1 NRAB=   301 NRAA=     0 NRBB=     0 NR=   602.
 FoFJK:  IHMeth= 1 ICntrl=     200 DoSepK=F KAlg= 0 I1Cent=           0 FoldK=F
 IRaf= 990000000 NMat=     602 IRICut=     752 DoRegI=T DoRafI=T ISym2E= 2 IDoP0=3 IntGTp=3.
 FoFCou: FMM=F IPFlag=           0 FMFlag=           0 FMFlg1=           0
         NFxFlg=           0 DoJE=F BraDBF=F KetDBF=F FulRan=T
         wScrn=  0.000000 ICntrl=       200 IOpCl=  0 I1Cent=           0 NGrid=           0
         NMat0=  602 NMatS0=      0 NMatT0=  301 NMatD0=  602 NMtDS0=    0 NMtDT0=    0
 Integrals replicated using symmetry in FoFCou.
 Raff kept on since  95.02% of shell-pairs survive, threshold=   0.20 IRatSp=95.
 DD1Dir:  Pass   2 NRAB=   301 NRAA=     0 NRBB=     0 NR=   602.
 DD1Dir:  Pass   3 NRAB=   210 NRAA=   182 NRBB=     0 NR=   602.
 DD1Dir:  Pass   4 NRAB=     0 NRAA=   224 NRBB=   378 NR=   602.
 Symmetry is being used.
 R6Disp: Adding Grimme-D3(BJ) dispersion energy 1st derivatives to the gradient.
 Discarding MO integrals.
 Leave Link 1112 at Mon Oct  7 14:42:40 2024, MaxMem=  2684354560 cpu:            6286.0 elap:            1050.0
 (Enter /gpfs/fs1/soft/bebop/software/custom-built/gaussian/16-c.02/g16/l601.exe)
 Copying SCF densities to generalized density rwf, IOpCl= 1 IROHF=0.

 **********************************************************************

            Population analysis using the SCF Density.

 **********************************************************************

 Orbital symmetries:
 Alpha Orbitals:
       Occupied  (A) (A) (A) (A) (A) (A) (A) (A) (A) (A) (A) (A)
                 (A) (A) (A) (A) (A) (A) (A) (A) (A) (A) (A) (A)
                 (A) (A) (A) (A) (A)
       Virtual   (A) (A) (A) (A) (A) (A) (A) (A) (A) (A) (A) (A)
                 (A) (A) (A) (A) (A) (A) (A) (A) (A) (A) (A) (A)
                 (A) (A) (A) (A) (A) (A) (A) (A) (A) (A) (A) (A)
                 (A) (A) (A) (A) (A) (A) (A) (A) (A) (A) (A) (A)
                 (A) (A) (A) (A) (A) (A) (A) (A) (A) (A) (A) (A)
                 (A) (A) (A) (A) (A) (A) (A) (A) (A) (A) (A) (A)
                 (A) (A) (A) (A) (A) (A) (A) (A) (A) (A) (A) (A)
                 (A) (A) (A) (A) (A) (A) (A) (A) (A) (A) (A) (A)
                 (A) (A) (A) (A) (A) (A) (A) (A) (A) (A) (A) (A)
                 (A) (A) (A) (A) (A) (A) (A) (A) (A) (A) (A) (A)
                 (A) (A) (A) (A) (A) (A) (A) (A) (A) (A) (A) (A)
                 (A) (A) (A) (A) (A) (A) (A) (A) (A) (A) (A) (A)
                 (A) (A) (A) (A) (A) (A) (A) (A) (A) (A) (A) (A)
                 (A) (A) (A) (A) (A) (A) (A) (A) (A) (A) (A) (A)
                 (A) (A) (A) (A) (A) (A) (A) (A) (A) (A) (A) (A)
                 (A) (A) (A) (A) (A) (A) (A) (A) (A) (A) (A) (A)
                 (A) (A) (A) (A) (A) (A) (A) (A) (A) (A) (A) (A)
                 (A) (A) (A) (A) (A) (A) (A) (A) (A) (A) (A) (A)
                 (A) (A) (A) (A) (A) (A) (A) (A) (A) (A) (A) (A)
                 (A) (A) (A) (A) (A) (A) (A) (A) (A) (A) (A) (A)
                 (A) (A) (A) (A) (A) (A) (A) (A) (A) (A) (A) (A)
                 (A) (A) (A) (A) (A) (A) (A) (A) (A) (A) (A) (A)
                 (A) (A) (A)
 Beta  Orbitals:
       Occupied  (A) (A) (A) (A) (A) (A) (A) (A) (A) (A) (A) (A)
                 (A) (A) (A) (A) (A) (A) (A) (A) (A) (A) (A) (A)
                 (A) (A) (A) (A)
       Virtual   (A) (A) (A) (A) (A) (A) (A) (A) (A) (A) (A) (A)
                 (A) (A) (A) (A) (A) (A) (A) (A) (A) (A) (A) (A)
                 (A) (A) (A) (A) (A) (A) (A) (A) (A) (A) (A) (A)
                 (A) (A) (A) (A) (A) (A) (A) (A) (A) (A) (A) (A)
                 (A) (A) (A) (A) (A) (A) (A) (A) (A) (A) (A) (A)
                 (A) (A) (A) (A) (A) (A) (A) (A) (A) (A) (A) (A)
                 (A) (A) (A) (A) (A) (A) (A) (A) (A) (A) (A) (A)
                 (A) (A) (A) (A) (A) (A) (A) (A) (A) (A) (A) (A)
                 (A) (A) (A) (A) (A) (A) (A) (A) (A) (A) (A) (A)
                 (A) (A) (A) (A) (A) (A) (A) (A) (A) (A) (A) (A)
                 (A) (A) (A) (A) (A) (A) (A) (A) (A) (A) (A) (A)
                 (A) (A) (A) (A) (A) (A) (A) (A) (A) (A) (A) (A)
                 (A) (A) (A) (A) (A) (A) (A) (A) (A) (A) (A) (A)
                 (A) (A) (A) (A) (A) (A) (A) (A) (A) (A) (A) (A)
                 (A) (A) (A) (A) (A) (A) (A) (A) (A) (A) (A) (A)
                 (A) (A) (A) (A) (A) (A) (A) (A) (A) (A) (A) (A)
                 (A) (A) (A) (A) (A) (A) (A) (A) (A) (A) (A) (A)
                 (A) (A) (A) (A) (A) (A) (A) (A) (A) (A) (A) (A)
                 (A) (A) (A) (A) (A) (A) (A) (A) (A) (A) (A) (A)
                 (A) (A) (A) (A) (A) (A) (A) (A) (A) (A) (A) (A)
                 (A) (A) (A) (A) (A) (A) (A) (A) (A) (A) (A) (A)
                 (A) (A) (A) (A) (A) (A) (A) (A) (A) (A) (A) (A)
                 (A) (A) (A) (A)
 The electronic state is 2-A.
 Alpha  occ. eigenvalues -- -102.89642 -19.78386 -10.71751 -10.70585 -10.64186
 Alpha  occ. eigenvalues --  -10.63553  -9.88570  -7.52882  -7.51959  -7.51957
 Alpha  occ. eigenvalues --   -1.26398  -0.91994  -0.89529  -0.88451  -0.76487
 Alpha  occ. eigenvalues --   -0.68030  -0.62617  -0.56233  -0.54354  -0.52031
 Alpha  occ. eigenvalues --   -0.50013  -0.49524  -0.47404  -0.45886  -0.41900
 Alpha  occ. eigenvalues --   -0.39338  -0.35837  -0.35765  -0.28942
 Alpha virt. eigenvalues --    0.06543   0.09617   0.10459   0.12309   0.13053
 Alpha virt. eigenvalues --    0.13765   0.14843   0.16905   0.17728   0.19913
 Alpha virt. eigenvalues --    0.20490   0.22975   0.25122   0.27302   0.27867
 Alpha virt. eigenvalues --    0.31504   0.33158   0.34276   0.38133   0.38418
 Alpha virt. eigenvalues --    0.40477   0.41462   0.42040   0.44327   0.45115
 Alpha virt. eigenvalues --    0.45445   0.48419   0.49806   0.49955   0.50373
 Alpha virt. eigenvalues --    0.51512   0.51859   0.53013   0.53731   0.54146
 Alpha virt. eigenvalues --    0.56606   0.57135   0.58375   0.58787   0.61267
 Alpha virt. eigenvalues --    0.63359   0.65026   0.66636   0.68396   0.72758
 Alpha virt. eigenvalues --    0.76355   0.78521   0.80504   0.82772   0.83805
 Alpha virt. eigenvalues --    0.87137   0.89229   0.90171   0.91205   0.95363
 Alpha virt. eigenvalues --    0.96216   0.98605   1.01047   1.04160   1.06241
 Alpha virt. eigenvalues --    1.07386   1.08348   1.09996   1.11564   1.15005
 Alpha virt. eigenvalues --    1.16224   1.17722   1.20232   1.20682   1.21426
 Alpha virt. eigenvalues --    1.26794   1.28843   1.30923   1.32056   1.32829
 Alpha virt. eigenvalues --    1.34602   1.38212   1.39127   1.39226   1.40345
 Alpha virt. eigenvalues --    1.42090   1.43666   1.46157   1.50798   1.50991
 Alpha virt. eigenvalues --    1.53709   1.55693   1.59404   1.60879   1.65903
 Alpha virt. eigenvalues --    1.68766   1.78028   1.79745   1.86160   1.90638
 Alpha virt. eigenvalues --    2.01809   2.02523   2.06191   2.07084   2.07368
 Alpha virt. eigenvalues --    2.08665   2.11098   2.12547   2.19785   2.20445
 Alpha virt. eigenvalues --    2.21412   2.25134   2.25172   2.26174   2.31184
 Alpha virt. eigenvalues --    2.33457   2.34343   2.35701   2.38830   2.39680
 Alpha virt. eigenvalues --    2.40197   2.42611   2.47664   2.48758   2.50705
 Alpha virt. eigenvalues --    2.54497   2.59171   2.62113   2.63133   2.67455
 Alpha virt. eigenvalues --    2.72688   2.75667   2.77095   2.79223   2.81670
 Alpha virt. eigenvalues --    2.83843   2.84351   2.84743   2.87461   2.90176
 Alpha virt. eigenvalues --    2.91997   2.94717   2.96133   2.97635   2.98854
 Alpha virt. eigenvalues --    3.02817   3.03529   3.04509   3.05368   3.10373
 Alpha virt. eigenvalues --    3.11564   3.12853   3.13307   3.15415   3.17765
 Alpha virt. eigenvalues --    3.20108   3.21122   3.22018   3.24632   3.26841
 Alpha virt. eigenvalues --    3.29969   3.31675   3.36090   3.37191   3.40146
 Alpha virt. eigenvalues --    3.41197   3.41655   3.45981   3.47042   3.49121
 Alpha virt. eigenvalues --    3.51232   3.54559   3.54883   3.56010   3.58755
 Alpha virt. eigenvalues --    3.60523   3.61176   3.64642   3.65381   3.66882
 Alpha virt. eigenvalues --    3.68669   3.70937   3.74941   3.78224   3.80597
 Alpha virt. eigenvalues --    3.81791   3.86075   3.89168   3.89605   3.94979
 Alpha virt. eigenvalues --    3.96640   3.97804   3.99572   3.99980   4.00826
 Alpha virt. eigenvalues --    4.04302   4.04978   4.07756   4.11938   4.13300
 Alpha virt. eigenvalues --    4.15785   4.17757   4.18560   4.21073   4.22217
 Alpha virt. eigenvalues --    4.25024   4.26883   4.28158   4.32991   4.35134
 Alpha virt. eigenvalues --    4.37399   4.38984   4.40441   4.42276   4.42984
 Alpha virt. eigenvalues --    4.45971   4.49972   4.55155   4.60748   4.62779
 Alpha virt. eigenvalues --    4.66635   4.73173   4.77525   4.85355   4.89597
 Alpha virt. eigenvalues --    4.92311   4.94362   4.98350   5.01474   5.05622
 Alpha virt. eigenvalues --    5.09785   5.13176   5.18309   5.22518   5.25255
 Alpha virt. eigenvalues --    5.26459   5.28233   5.29892   5.34462   5.35645
 Alpha virt. eigenvalues --    5.39408   5.40800   5.44971   5.48076   5.48973
 Alpha virt. eigenvalues --    5.49473   5.51561   5.53709   5.54561   5.69198
 Alpha virt. eigenvalues --    5.74650   5.84209   5.90883   5.93531   5.96408
 Alpha virt. eigenvalues --    6.01940   6.05731   6.09072   6.11592   6.20880
 Alpha virt. eigenvalues --    6.26480   6.54896   6.83185   6.94090   7.07803
 Alpha virt. eigenvalues --    7.16307   7.42028   9.88712  11.22597  12.60561
 Alpha virt. eigenvalues --   13.62591  14.24125
  Beta  occ. eigenvalues -- -102.89365 -19.77782 -10.70588 -10.70442 -10.64135
  Beta  occ. eigenvalues --  -10.63553  -9.88295  -7.51864  -7.51805  -7.51802
  Beta  occ. eigenvalues --   -1.25055  -0.89933  -0.89048  -0.87352  -0.75288
  Beta  occ. eigenvalues --   -0.66519  -0.59128  -0.55277  -0.53207  -0.51550
  Beta  occ. eigenvalues --   -0.49553  -0.48736  -0.45693  -0.45304  -0.38713
  Beta  occ. eigenvalues --   -0.38321  -0.35312  -0.35231
  Beta virt. eigenvalues --   -0.05721   0.06638   0.09708   0.10694   0.12629
  Beta virt. eigenvalues --    0.13121   0.13935   0.15045   0.17555   0.18308
  Beta virt. eigenvalues --    0.20287   0.21470   0.24371   0.25484   0.27644
  Beta virt. eigenvalues --    0.28256   0.31953   0.33528   0.34646   0.38526
  Beta virt. eigenvalues --    0.39214   0.40912   0.42292   0.43404   0.44781
  Beta virt. eigenvalues --    0.45890   0.46143   0.48655   0.50122   0.50298
  Beta virt. eigenvalues --    0.50852   0.51747   0.52292   0.53210   0.53936
  Beta virt. eigenvalues --    0.54971   0.57026   0.57342   0.58730   0.58943
  Beta virt. eigenvalues --    0.61724   0.64008   0.65627   0.67896   0.68762
  Beta virt. eigenvalues --    0.73093   0.76684   0.79081   0.81903   0.83859
  Beta virt. eigenvalues --    0.84217   0.87726   0.89638   0.90614   0.91437
  Beta virt. eigenvalues --    0.95713   0.96439   0.98827   1.01543   1.04453
  Beta virt. eigenvalues --    1.06413   1.07700   1.08614   1.10388   1.11987
  Beta virt. eigenvalues --    1.15354   1.16478   1.18149   1.20554   1.20994
  Beta virt. eigenvalues --    1.21705   1.27101   1.29089   1.31170   1.32379
  Beta virt. eigenvalues --    1.33218   1.34935   1.38298   1.39300   1.39486
  Beta virt. eigenvalues --    1.40469   1.42336   1.44298   1.46559   1.51109
  Beta virt. eigenvalues --    1.51209   1.54326   1.55965   1.59696   1.61175
  Beta virt. eigenvalues --    1.66287   1.70262   1.78598   1.80844   1.86778
  Beta virt. eigenvalues --    1.91492   2.02507   2.03815   2.06794   2.07673
  Beta virt. eigenvalues --    2.07939   2.09718   2.12409   2.13506   2.20656
  Beta virt. eigenvalues --    2.21310   2.22032   2.25197   2.25229   2.26681
  Beta virt. eigenvalues --    2.32042   2.34259   2.34969   2.36512   2.39125
  Beta virt. eigenvalues --    2.40252   2.40614   2.42954   2.48104   2.49153
  Beta virt. eigenvalues --    2.51208   2.55189   2.59676   2.62577   2.63379
  Beta virt. eigenvalues --    2.67949   2.73058   2.76318   2.77520   2.79353
  Beta virt. eigenvalues --    2.82037   2.84457   2.84664   2.85272   2.87730
  Beta virt. eigenvalues --    2.90317   2.92408   2.95066   2.96789   2.98621
  Beta virt. eigenvalues --    2.99131   3.03818   3.04073   3.04799   3.05895
  Beta virt. eigenvalues --    3.10647   3.12013   3.13069   3.13837   3.15729
  Beta virt. eigenvalues --    3.18214   3.20515   3.21456   3.22624   3.25306
  Beta virt. eigenvalues --    3.27224   3.30429   3.32928   3.36472   3.37798
  Beta virt. eigenvalues --    3.40665   3.41382   3.42581   3.46417   3.47477
  Beta virt. eigenvalues --    3.49360   3.51570   3.55050   3.55103   3.56212
  Beta virt. eigenvalues --    3.59155   3.60954   3.61528   3.65097   3.65739
  Beta virt. eigenvalues --    3.67172   3.69141   3.71097   3.75844   3.78790
  Beta virt. eigenvalues --    3.81018   3.82157   3.86311   3.89378   3.89695
  Beta virt. eigenvalues --    3.95113   3.96717   3.97973   3.99555   4.00390
  Beta virt. eigenvalues --    4.00981   4.04502   4.05376   4.07817   4.12141
  Beta virt. eigenvalues --    4.13442   4.16101   4.18022   4.18732   4.21366
  Beta virt. eigenvalues --    4.22427   4.25381   4.27329   4.28266   4.33519
  Beta virt. eigenvalues --    4.35441   4.37911   4.39455   4.40778   4.42554
  Beta virt. eigenvalues --    4.43457   4.46253   4.50329   4.55609   4.61075
  Beta virt. eigenvalues --    4.63158   4.67245   4.73611   4.78076   4.85740
  Beta virt. eigenvalues --    4.89828   4.92406   4.94739   4.98450   5.01967
  Beta virt. eigenvalues --    5.05840   5.10027   5.13533   5.18446   5.22752
  Beta virt. eigenvalues --    5.25510   5.26605   5.28538   5.30100   5.34744
  Beta virt. eigenvalues --    5.36085   5.39763   5.41429   5.45118   5.48516
  Beta virt. eigenvalues --    5.49262   5.49836   5.51801   5.54331   5.54774
  Beta virt. eigenvalues --    5.69767   5.74967   5.84657   5.91230   5.93904
  Beta virt. eigenvalues --    5.96593   6.02497   6.05912   6.09618   6.12102
  Beta virt. eigenvalues --    6.21522   6.27335   6.55415   6.84529   6.95598
  Beta virt. eigenvalues --    7.09166   7.16818   7.42352   9.89574  11.23262
  Beta virt. eigenvalues --   12.60953  13.62650  14.24218
          Condensed to atoms (all electrons):
               1          2          3          4          5          6
     1  C    4.845172   0.346624   0.348268   0.421963   0.158655  -0.028466
     2  C    0.346624   4.809657  -0.048591  -0.035352  -0.015653  -0.002053
     3  C    0.348268  -0.048591   5.045315  -0.030389   0.250431   0.330675
     4  H    0.421963  -0.035352  -0.030389   0.507141  -0.017091   0.001936
     5  O    0.158655  -0.015653   0.250431  -0.017091   7.936261  -0.025817
     6  C   -0.028466  -0.002053   0.330675   0.001936  -0.025817   4.810742
     7  H   -0.007793   0.001331   0.172119  -0.002385  -0.002271  -0.011251
     8  H   -0.039278   0.409617   0.001796   0.004680   0.003372  -0.002333
     9  H   -0.031383   0.407869   0.006541  -0.004736  -0.003694   0.000092
    10  H   -0.042491   0.401728   0.000337  -0.000111   0.004230  -0.000472
    11  H    0.007364  -0.000240  -0.037435  -0.000180  -0.002580   0.410623
    12  H   -0.000306  -0.000548  -0.033699   0.000381   0.003310   0.401339
    13  H   -0.006016   0.000769  -0.027707  -0.000281   0.001959   0.390131
    14  Cl   0.001040  -0.000007  -0.085909   0.007006   0.000757   0.003913
               7          8          9         10         11         12
     1  C   -0.007793  -0.039278  -0.031383  -0.042491   0.007364  -0.000306
     2  C    0.001331   0.409617   0.407869   0.401728  -0.000240  -0.000548
     3  C    0.172119   0.001796   0.006541   0.000337  -0.037435  -0.033699
     4  H   -0.002385   0.004680  -0.004736  -0.000111  -0.000180   0.000381
     5  O   -0.002271   0.003372  -0.003694   0.004230  -0.002580   0.003310
     6  C   -0.011251  -0.002333   0.000092  -0.000472   0.410623   0.401339
     7  H    0.403418   0.000085  -0.000070  -0.000031  -0.002334  -0.000653
     8  H    0.000085   0.567681  -0.028087  -0.026069  -0.000208   0.000433
     9  H   -0.000070  -0.028087   0.565609  -0.029162   0.000076  -0.000034
    10  H   -0.000031  -0.026069  -0.029162   0.585408  -0.000076   0.000036
    11  H   -0.002334  -0.000208   0.000076  -0.000076   0.547507  -0.022815
    12  H   -0.000653   0.000433  -0.000034   0.000036  -0.022815   0.559125
    13  H    0.002432   0.001924  -0.000312   0.000510  -0.030293  -0.028384
    14  Cl   0.261209  -0.000004   0.000005  -0.000003   0.001189   0.002943
              13         14
     1  C   -0.006016   0.001040
     2  C    0.000769  -0.000007
     3  C   -0.027707  -0.085909
     4  H   -0.000281   0.007006
     5  O    0.001959   0.000757
     6  C    0.390131   0.003913
     7  H    0.002432   0.261209
     8  H    0.001924  -0.000004
     9  H   -0.000312   0.000005
    10  H    0.000510  -0.000003
    11  H   -0.030293   0.001189
    12  H   -0.028384   0.002943
    13  H    0.591746  -0.000370
    14  Cl  -0.000370  17.112670
          Atomic-Atomic Spin Densities.
               1          2          3          4          5          6
     1  C    0.012552  -0.002573  -0.028797   0.004044   0.004138   0.011916
     2  C   -0.002573  -0.000882  -0.000760   0.000008   0.006887  -0.002163
     3  C   -0.028797  -0.000760   0.751106  -0.002011  -0.100505  -0.033110
     4  H    0.004044   0.000008  -0.002011  -0.004574   0.000938   0.000882
     5  O    0.004138   0.006887  -0.100505   0.000938   0.227500   0.000055
     6  C    0.011916  -0.002163  -0.033110   0.000882   0.000055   0.028009
     7  H   -0.004447   0.000249   0.088232  -0.000586  -0.004581  -0.006561
     8  H    0.000069   0.000670  -0.001165  -0.000180   0.000193  -0.000115
     9  H   -0.000701  -0.001596   0.001109   0.000935  -0.001567   0.000196
    10  H   -0.001080   0.001742  -0.001347  -0.000987   0.000429  -0.000343
    11  H    0.000746  -0.000163  -0.007548   0.000072   0.000108   0.007392
    12  H    0.000157   0.000087  -0.001232  -0.000043  -0.000116   0.002958
    13  H   -0.004666   0.001347  -0.006697  -0.000231   0.004114  -0.007977
    14  Cl   0.007196  -0.000315  -0.090049   0.001509   0.005926   0.008835
               7          8          9         10         11         12
     1  C   -0.004447   0.000069  -0.000701  -0.001080   0.000746   0.000157
     2  C    0.000249   0.000670  -0.001596   0.001742  -0.000163   0.000087
     3  C    0.088232  -0.001165   0.001109  -0.001347  -0.007548  -0.001232
     4  H   -0.000586  -0.000180   0.000935  -0.000987   0.000072  -0.000043
     5  O   -0.004581   0.000193  -0.001567   0.000429   0.000108  -0.000116
     6  C   -0.006561  -0.000115   0.000196  -0.000343   0.007392   0.002958
     7  H   -0.056403   0.000020  -0.000035   0.000079  -0.000835   0.000005
     8  H    0.000020  -0.000553  -0.000223   0.000144  -0.000037  -0.000029
     9  H   -0.000035  -0.000223   0.009811  -0.002724   0.000016   0.000003
    10  H    0.000079   0.000144  -0.002724   0.003844  -0.000027  -0.000033
    11  H   -0.000835  -0.000037   0.000016  -0.000027   0.007056   0.000282
    12  H    0.000005  -0.000029   0.000003  -0.000033   0.000282  -0.003064
    13  H    0.000918   0.000716  -0.000371   0.000728  -0.006973  -0.000147
    14  Cl  -0.054043  -0.000025   0.000039  -0.000103   0.001619   0.000020
              13         14
     1  C   -0.004666   0.007196
     2  C    0.001347  -0.000315
     3  C   -0.006697  -0.090049
     4  H   -0.000231   0.001509
     5  O    0.004114   0.005926
     6  C   -0.007977   0.008835
     7  H    0.000918  -0.054043
     8  H    0.000716  -0.000025
     9  H   -0.000371   0.000039
    10  H    0.000728  -0.000103
    11  H   -0.006973   0.001619
    12  H   -0.000147   0.000020
    13  H    0.062376  -0.000974
    14  Cl  -0.000974   0.389352
 Mulliken charges and spin densities:
               1          2
     1  C    0.026646  -0.001445
     2  C   -0.275152   0.002537
     3  C    0.108248   0.567228
     4  H    0.147420  -0.000223
     5  O   -0.291868   0.143519
     6  C   -0.279057   0.009975
     7  H    0.186194  -0.037990
     8  H    0.106390  -0.000517
     9  H    0.117286   0.004892
    10  H    0.106168   0.000320
    11  H    0.129402   0.001709
    12  H    0.118870  -0.001152
    13  H    0.103891   0.042160
    14  Cl  -0.304438   0.268987
 Sum of Mulliken charges =  -0.00000   1.00000
 Mulliken charges and spin densities with hydrogens summed into heavy atoms:
               1          2
     1  C    0.174066  -0.001668
     2  C    0.054692   0.007232
     3  C    0.108248   0.567228
     5  O   -0.291868   0.143519
     6  C    0.073105   0.052693
    14  Cl  -0.118244   0.230997
 APT charges:
               1
     1  C    0.309155
     2  C    0.010604
     3  C    0.372347
     4  H    0.000267
     5  O   -0.596201
     6  C   -0.008188
     7  H    0.353294
     8  H    0.009082
     9  H   -0.003417
    10  H    0.009063
    11  H    0.022368
    12  H    0.028647
    13  H   -0.008049
    14  Cl  -0.498971
 Sum of APT charges =  -0.00000
 APT charges with hydrogens summed into heavy atoms:
               1
     1  C    0.309422
     2  C    0.025331
     3  C    0.372347
     5  O   -0.596201
     6  C    0.034778
    14  Cl  -0.145677
 Electronic spatial extent (au):  <R**2>=           1030.1155
 Charge=             -0.0000 electrons
 Dipole moment (field-independent basis, Debye):
    X=             -3.9241    Y=              0.8618    Z=             -1.6683  Tot=              4.3503
 Quadrupole moment (field-independent basis, Debye-Ang):
   XX=            -49.0000   YY=            -40.5655   ZZ=            -47.3926
   XY=              2.2215   XZ=              2.6701   YZ=              0.2880
 Traceless Quadrupole moment (field-independent basis, Debye-Ang):
   XX=             -3.3473   YY=              5.0872   ZZ=             -1.7399
   XY=              2.2215   XZ=              2.6701   YZ=              0.2880
 Octapole moment (field-independent basis, Debye-Ang**2):
  XXX=            -21.2150  YYY=              1.0357  ZZZ=             -1.1206  XYY=             -3.4579
  XXY=             -1.5325  XXZ=             -0.7584  XZZ=              2.0759  YZZ=              0.5286
  YYZ=              1.6227  XYZ=             -0.0868
 Hexadecapole moment (field-independent basis, Debye-Ang**3):
 XXXX=           -935.0598 YYYY=           -281.0094 ZZZZ=           -134.9256 XXXY=              1.7643
 XXXZ=             -3.0966 YYYX=              1.7638 YYYZ=              0.8072 ZZZX=              1.3180
 ZZZY=              1.1110 XXYY=           -198.5700 XXZZ=           -182.1431 YYZZ=            -68.7099
 XXYZ=             -0.4243 YYXZ=             -1.5552 ZZXY=              2.6128
 N-N= 2.811002049815D+02 E-N=-2.197359794500D+03  KE= 6.901606008061D+02
  Exact polarizability:      92.780      -0.834      64.784      -1.500       0.924      52.733
 Approx polarizability:      88.065      -1.857      70.881      -3.632       1.982      67.812
                          Isotropic Fermi Contact Couplings
        Atom                 a.u.       MegaHertz       Gauss      10(-4) cm-1
     1  C(13)              0.00236       2.65856       0.94864       0.88680
     2  C(13)             -0.00367      -4.12070      -1.47037      -1.37452
     3  C(13)              0.14989     168.50705      60.12750      56.20790
     4  H(1)               0.00013       0.58466       0.20862       0.19502
     5  O(17)              0.03279     -19.87475      -7.09180      -6.62950
     6  C(13)              0.02109      23.71118       8.46074       7.90920
     7  H(1)              -0.00490     -21.89403      -7.81233      -7.30306
     8  H(1)              -0.00012      -0.51485      -0.18371      -0.17174
     9  H(1)               0.00217       9.69379       3.45899       3.23350
    10  H(1)               0.00076       3.41348       1.21801       1.13861
    11  H(1)               0.00218       9.73070       3.47215       3.24581
    12  H(1)               0.00025       1.12070       0.39989       0.37383
    13  H(1)               0.01687      75.42112      26.91213      25.15778
    14  Cl(35)             0.11192      49.07394      17.51080      16.36930
 --------------------------------------------------------
       Center         ----  Spin Dipole Couplings  ----
                      3XX-RR        3YY-RR        3ZZ-RR
 --------------------------------------------------------
     1   Atom        0.004855      0.007571     -0.012425
     2   Atom        0.010279     -0.005531     -0.004748
     3   Atom        0.635047     -0.285763     -0.349284
     4   Atom       -0.006469      0.013622     -0.007153
     5   Atom        0.646078     -0.262561     -0.383517
     6   Atom       -0.029867      0.056458     -0.026591
     7   Atom        0.136383     -0.060814     -0.075569
     8   Atom        0.007075     -0.003908     -0.003167
     9   Atom        0.002348     -0.000123     -0.002225
    10   Atom        0.001098     -0.001782      0.000684
    11   Atom       -0.007293      0.016048     -0.008755
    12   Atom       -0.006533      0.004475      0.002058
    13   Atom        0.003649      0.004290     -0.007940
    14   Atom        1.381954     -0.599476     -0.782477
 --------------------------------------------------------
                        XY            XZ            YZ
 --------------------------------------------------------
     1   Atom        0.025744     -0.009096     -0.003886
     2   Atom        0.004567      0.002364      0.002566
     3   Atom       -0.291007      0.108324     -0.026406
     4   Atom        0.005650      0.000864      0.004838
     5   Atom       -0.439461      0.250786     -0.076765
     6   Atom       -0.027206      0.008658     -0.027880
     7   Atom       -0.063022     -0.024557      0.007970
     8   Atom        0.000758      0.003855     -0.000405
     9   Atom        0.003462      0.001370      0.000103
    10   Atom        0.002428      0.003908      0.002037
    11   Atom        0.002736      0.001205      0.005879
    12   Atom        0.001060     -0.002998     -0.013376
    13   Atom       -0.005062      0.001304     -0.004488
    14   Atom       -0.685624     -0.266782      0.083580
 --------------------------------------------------------


 ---------------------------------------------------------------------------------
              Anisotropic Spin Dipole Couplings in Principal Axis System
 ---------------------------------------------------------------------------------

       Atom             a.u.   MegaHertz   Gauss  10(-4) cm-1        Axes

              Baa    -0.0216    -2.897    -1.034    -0.966  0.6963 -0.5540  0.4563
     1 C(13)  Bbb    -0.0122    -1.637    -0.584    -0.546 -0.2128  0.4478  0.8684
              Bcc     0.0338     4.534     1.618     1.512  0.6854  0.7018 -0.1939
 
              Baa    -0.0080    -1.073    -0.383    -0.358 -0.1342  0.8229 -0.5521
     2 C(13)  Bbb    -0.0040    -0.541    -0.193    -0.180 -0.2940  0.4990  0.8152
              Bcc     0.0120     1.614     0.576     0.538  0.9463  0.2717  0.1749
 
              Baa    -0.3720   -49.921   -17.813   -16.652  0.2942  0.8742 -0.3862
     3 C(13)  Bbb    -0.3588   -48.144   -17.179   -16.059  0.0170  0.3992  0.9167
              Bcc     0.7308    98.066    34.992    32.711  0.9556 -0.2762  0.1026
 
[...]
  Beta virt. eigenvalues --    2.32345   2.34393   2.35291   2.36487   2.39226
  Beta virt. eigenvalues --    2.40549   2.40873   2.43034   2.48030   2.49233
  Beta virt. eigenvalues --    2.51232   2.55392   2.59784   2.62247   2.63414
  Beta virt. eigenvalues --    2.67674   2.72883   2.76745   2.77137   2.79685
  Beta virt. eigenvalues --    2.82090   2.84105   2.84612   2.85448   2.87656
  Beta virt. eigenvalues --    2.90330   2.92400   2.94914   2.96676   2.98679
  Beta virt. eigenvalues --    2.99492   3.03670   3.04156   3.04731   3.06201
  Beta virt. eigenvalues --    3.10604   3.12320   3.12980   3.13616   3.15896
  Beta virt. eigenvalues --    3.18469   3.20465   3.21311   3.23355   3.25607
  Beta virt. eigenvalues --    3.27288   3.30330   3.33832   3.36225   3.38008
  Beta virt. eigenvalues --    3.40445   3.41339   3.42259   3.46533   3.47374
  Beta virt. eigenvalues --    3.49508   3.51477   3.55124   3.55519   3.56435
  Beta virt. eigenvalues --    3.59067   3.60869   3.62175   3.65801   3.66398
  Beta virt. eigenvalues --    3.67489   3.69592   3.71714   3.76647   3.78872
  Beta virt. eigenvalues --    3.81569   3.83053   3.86468   3.89358   3.89814
  Beta virt. eigenvalues --    3.95340   3.96892   3.98237   3.99630   4.01059
  Beta virt. eigenvalues --    4.01340   4.04852   4.05773   4.08071   4.12093
  Beta virt. eigenvalues --    4.13605   4.16080   4.17963   4.18826   4.21330
  Beta virt. eigenvalues --    4.22689   4.25608   4.27418   4.29013   4.34291
  Beta virt. eigenvalues --    4.35734   4.38711   4.39695   4.41192   4.43195
  Beta virt. eigenvalues --    4.43976   4.46725   4.50921   4.56317   4.61858
  Beta virt. eigenvalues --    4.63995   4.67009   4.74736   4.79770   4.86828
  Beta virt. eigenvalues --    4.90481   4.92437   4.95345   4.98620   5.01882
  Beta virt. eigenvalues --    5.05991   5.09990   5.13798   5.18567   5.22832
  Beta virt. eigenvalues --    5.25853   5.26718   5.28822   5.30176   5.35193
  Beta virt. eigenvalues --    5.36944   5.40150   5.43002   5.45192   5.48889
  Beta virt. eigenvalues --    5.50030   5.51104   5.52045   5.54807   5.54849
  Beta virt. eigenvalues --    5.70052   5.76070   5.84327   5.91124   5.93698
  Beta virt. eigenvalues --    5.96404   6.02162   6.06032   6.08959   6.12032
  Beta virt. eigenvalues --    6.20389   6.27461   6.56126   6.84627   6.95926
  Beta virt. eigenvalues --    7.09581   7.16875   7.42601   9.98125  11.24064
  Beta virt. eigenvalues --   12.63811  13.62546  14.25246
          Condensed to atoms (all electrons):
               1          2          3          4          5          6
     1  C    4.844151   0.346251   0.347522   0.422285   0.159339  -0.028354
     2  C    0.346251   4.809423  -0.048128  -0.035182  -0.015681  -0.002083
     3  C    0.347522  -0.048128   5.022225  -0.030031   0.251140   0.331148
     4  H    0.422285  -0.035182  -0.030031   0.505870  -0.017139   0.001926
     5  O    0.159339  -0.015681   0.251140  -0.017139   7.935566  -0.025671
     6  C   -0.028354  -0.002083   0.331148   0.001926  -0.025671   4.810086
     7  H   -0.008681   0.001413   0.193910  -0.002446  -0.003072  -0.012747
     8  H   -0.039148   0.409758   0.001721   0.004656   0.003326  -0.002361
     9  H   -0.031348   0.407996   0.006519  -0.004782  -0.003675   0.000084
    10  H   -0.042397   0.401811   0.000308  -0.000073   0.004216  -0.000448
    11  H    0.007327  -0.000233  -0.036715  -0.000183  -0.002573   0.410264
    12  H   -0.000313  -0.000542  -0.033594   0.000378   0.003331   0.401240
    13  H   -0.006012   0.000617  -0.027759  -0.000259   0.001962   0.391468
    14  Cl   0.001031  -0.000001  -0.089804   0.007225   0.000596   0.003758
               7          8          9         10         11         12
     1  C   -0.008681  -0.039148  -0.031348  -0.042397   0.007327  -0.000313
     2  C    0.001413   0.409758   0.407996   0.401811  -0.000233  -0.000542
     3  C    0.193910   0.001721   0.006519   0.000308  -0.036715  -0.033594
     4  H   -0.002446   0.004656  -0.004782  -0.000073  -0.000183   0.000378
     5  O   -0.003072   0.003326  -0.003675   0.004216  -0.002573   0.003331
     6  C   -0.012747  -0.002361   0.000084  -0.000448   0.410264   0.401240
     7  H    0.406687   0.000094  -0.000073  -0.000029  -0.002512  -0.000595
     8  H    0.000094   0.567590  -0.028083  -0.026084  -0.000207   0.000438
     9  H   -0.000073  -0.028083   0.565095  -0.029016   0.000076  -0.000035
    10  H   -0.000029  -0.026084  -0.029016   0.584831  -0.000075   0.000037
    11  H   -0.002512  -0.000207   0.000076  -0.000075   0.546849  -0.022688
    12  H   -0.000595   0.000438  -0.000035   0.000037  -0.022688   0.558437
    13  H    0.002642   0.001926  -0.000301   0.000493  -0.030135  -0.028260
    14  Cl   0.243293  -0.000003   0.000004   0.000001   0.001243   0.003055
              13         14
     1  C   -0.006012   0.001031
     2  C    0.000617  -0.000001
     3  C   -0.027759  -0.089804
     4  H   -0.000259   0.007225
     5  O    0.001962   0.000596
     6  C    0.391468   0.003758
     7  H    0.002642   0.243293
     8  H    0.001926  -0.000003
     9  H   -0.000301   0.000004
    10  H    0.000493   0.000001
    11  H   -0.030135   0.001243
    12  H   -0.028260   0.003055
    13  H    0.589870  -0.000341
    14  Cl  -0.000341  17.137415
          Atomic-Atomic Spin Densities.
               1          2          3          4          5          6
     1  C    0.013700  -0.002508  -0.028467   0.003710   0.003781   0.011622
     2  C   -0.002508  -0.001685  -0.000405   0.000136   0.006393  -0.002031
     3  C   -0.028467  -0.000405   0.708021  -0.001593  -0.095725  -0.031553
     4  H    0.003710   0.000136  -0.001593  -0.004874   0.000874   0.000819
     5  O    0.003781   0.006393  -0.095725   0.000874   0.222107  -0.000039
     6  C    0.011622  -0.002031  -0.031553   0.000819  -0.000039   0.028333
     7  H   -0.004618   0.000244   0.093753  -0.000618  -0.004771  -0.006788
     8  H    0.000045   0.000626  -0.001078  -0.000172   0.000189  -0.000109
     9  H   -0.000720  -0.001331   0.000994   0.000869  -0.001484   0.000187
    10  H   -0.001002   0.001671  -0.001228  -0.000930   0.000401  -0.000318
    11  H    0.000743  -0.000151  -0.007168   0.000068   0.000090   0.006944
    12  H    0.000128   0.000090  -0.000938  -0.000044  -0.000114   0.002610
    13  H   -0.004473   0.001238  -0.005978  -0.000209   0.003918  -0.006962
    14  Cl   0.007930  -0.000330  -0.095103   0.001479   0.006391   0.009501
               7          8          9         10         11         12
     1  C   -0.004618   0.000045  -0.000720  -0.001002   0.000743   0.000128
     2  C    0.000244   0.000626  -0.001331   0.001671  -0.000151   0.000090
     3  C    0.093753  -0.001078   0.000994  -0.001228  -0.007168  -0.000938
     4  H   -0.000618  -0.000172   0.000869  -0.000930   0.000068  -0.000044
     5  O   -0.004771   0.000189  -0.001484   0.000401   0.000090  -0.000114
     6  C   -0.006788  -0.000109   0.000187  -0.000318   0.006944   0.002610
     7  H   -0.058563   0.000020  -0.000034   0.000076  -0.000830   0.000001
     8  H    0.000020  -0.000489  -0.000219   0.000140  -0.000036  -0.000028
     9  H   -0.000034  -0.000219   0.009335  -0.002551   0.000016   0.000002
    10  H    0.000076   0.000140  -0.002551   0.003582  -0.000026  -0.000031
    11  H   -0.000830  -0.000036   0.000016  -0.000026   0.006537   0.000218
    12  H    0.000001  -0.000028   0.000002  -0.000031   0.000218  -0.003154
    13  H    0.000919   0.000680  -0.000349   0.000678  -0.006473  -0.000036
    14  Cl  -0.061842  -0.000028   0.000041  -0.000110   0.001740  -0.000026
              13         14
     1  C   -0.004473   0.007930
     2  C    0.001238  -0.000330
     3  C   -0.005978  -0.095103
     4  H   -0.000209   0.001479
     5  O    0.003918   0.006391
     6  C   -0.006962   0.009501
     7  H    0.000919  -0.061842
     8  H    0.000680  -0.000028
     9  H   -0.000349   0.000041
    10  H    0.000678  -0.000110
    11  H   -0.006473   0.001740
    12  H   -0.000036  -0.000026
    13  H    0.057497  -0.001034
    14  Cl  -0.001034   0.440930
 Mulliken charges and spin densities:
               1          2
     1  C    0.028348  -0.000128
     2  C   -0.275418   0.001955
     3  C    0.111539   0.533530
     4  H    0.147755  -0.000486
     5  O   -0.291667   0.142011
     6  C   -0.278310   0.012215
     7  H    0.182117  -0.043052
     8  H    0.106379  -0.000459
     9  H    0.117540   0.004756
    10  H    0.106426   0.000352
    11  H    0.129563   0.001673
    12  H    0.119109  -0.001323
    13  H    0.104090   0.039415
    14  Cl  -0.307472   0.309540
 Sum of Mulliken charges =  -0.00000   1.00000
 Mulliken charges and spin densities with hydrogens summed into heavy atoms:
               1          2
     1  C    0.176103  -0.000614
     2  C    0.054926   0.006604
     3  C    0.111539   0.533530
     5  O   -0.291667   0.142011
     6  C    0.074453   0.051980
    14  Cl  -0.125355   0.266488
 Electronic spatial extent (au):  <R**2>=           1021.9267
 Charge=             -0.0000 electrons
 Dipole moment (field-independent basis, Debye):
    X=             -3.9877    Y=              0.8856    Z=             -1.6570  Tot=              4.4081
 Quadrupole moment (field-independent basis, Debye-Ang):
   XX=            -49.0209   YY=            -40.5559   ZZ=            -47.3798
   XY=              2.2560   XZ=              2.6705   YZ=              0.2988
 Traceless Quadrupole moment (field-independent basis, Debye-Ang):
   XX=             -3.3687   YY=              5.0963   ZZ=             -1.7276
   XY=              2.2560   XZ=              2.6705   YZ=              0.2988
 Octapole moment (field-independent basis, Debye-Ang**2):
  XXX=            -21.5409  YYY=              1.0716  ZZZ=             -1.1198  XYY=             -3.4908
  XXY=             -1.4783  XXZ=             -0.7063  XZZ=              1.9837  YZZ=              0.5488
  YYZ=              1.6106  XYZ=             -0.0945
 Hexadecapole moment (field-independent basis, Debye-Ang**3):
 XXXX=           -926.4254 YYYY=           -279.2742 ZZZZ=           -134.8308 XXXY=              2.0436
 XXXZ=             -3.0508 YYYX=              1.8598 YYYZ=              0.7892 ZZZX=              1.3762
 ZZZY=              1.0724 XXYY=           -196.8357 XXZZ=           -180.5641 YYZZ=            -68.4669
 XXYZ=             -0.3824 YYXZ=             -1.5125 ZZXY=              2.6535
 N-N= 2.818071623188D+02 E-N=-2.198763528621D+03  KE= 6.901609053676D+02
                          Isotropic Fermi Contact Couplings
        Atom                 a.u.       MegaHertz       Gauss      10(-4) cm-1
     1  C(13)              0.00230       2.58398       0.92203       0.86192
     2  C(13)             -0.00385      -4.33279      -1.54605      -1.44526
     3  C(13)              0.14251     160.20809      57.16623      53.43967
     4  H(1)              -0.00009      -0.39807      -0.14204      -0.13278
     5  O(17)              0.03170     -19.21430      -6.85614      -6.40920
     6  C(13)              0.02014      22.63753       8.07763       7.55107
     7  H(1)              -0.00308     -13.74672      -4.90517      -4.58541
     8  H(1)              -0.00011      -0.47899      -0.17091      -0.15977
     9  H(1)               0.00214       9.56317       3.41238       3.18993
    10  H(1)               0.00077       3.43154       1.22446       1.14464
    11  H(1)               0.00202       9.04141       3.22620       3.01589
    12  H(1)               0.00005       0.21348       0.07618       0.07121
    13  H(1)               0.01587      70.92629      25.30826      23.65846
    14  Cl(35)             0.11965      52.46151      18.71957      17.49927
 --------------------------------------------------------
       Center         ----  Spin Dipole Couplings  ----
                      3XX-RR        3YY-RR        3ZZ-RR
 --------------------------------------------------------
     1   Atom        0.004842      0.007185     -0.012028
     2   Atom        0.009602     -0.005251     -0.004351
     3   Atom        0.606161     -0.271141     -0.335020
     4   Atom       -0.005907      0.012862     -0.006955
     5   Atom        0.629910     -0.251071     -0.378839
     6   Atom       -0.029502      0.055949     -0.026446
     7   Atom        0.143151     -0.063820     -0.079331
     8   Atom        0.006846     -0.003821     -0.003026
     9   Atom        0.002351     -0.000181     -0.002170
    10   Atom        0.001140     -0.001775      0.000634
    11   Atom       -0.006954      0.015485     -0.008531
    12   Atom       -0.006190      0.004287      0.001903
    13   Atom        0.003775      0.004038     -0.007812
    14   Atom        1.568819     -0.681296     -0.887523
 --------------------------------------------------------
                        XY            XZ            YZ
 --------------------------------------------------------
     1   Atom        0.025313     -0.008924     -0.004402
     2   Atom        0.004338      0.001998      0.002424
     3   Atom       -0.283747      0.103121     -0.025995
     4   Atom        0.005633      0.000805      0.004822
     5   Atom       -0.441033      0.245457     -0.078014
     6   Atom       -0.027095      0.008777     -0.027910
     7   Atom       -0.066380     -0.026249      0.008571
     8   Atom        0.000635      0.003737     -0.000431
     9   Atom        0.003335      0.001340      0.000115
    10   Atom        0.002308      0.003795      0.001927
    11   Atom        0.002667      0.001204      0.005713
    12   Atom        0.000712     -0.002883     -0.012852
    13   Atom       -0.004924      0.001084     -0.004327
    14   Atom       -0.779428     -0.310898      0.097475
 --------------------------------------------------------


 ---------------------------------------------------------------------------------
              Anisotropic Spin Dipole Couplings in Principal Axis System
 ---------------------------------------------------------------------------------

       Atom             a.u.   MegaHertz   Gauss  10(-4) cm-1        Axes

              Baa    -0.0209    -2.810    -1.003    -0.937  0.7048 -0.5678  0.4254
     1 C(13)  Bbb    -0.0124    -1.658    -0.592    -0.553 -0.1821  0.4347  0.8820
              Bcc     0.0333     4.467     1.594     1.490  0.6857  0.6991 -0.2029
 
              Baa    -0.0076    -1.017    -0.363    -0.339 -0.1482  0.8325 -0.5338
     2 C(13)  Bbb    -0.0036    -0.487    -0.174    -0.162 -0.2831  0.4815  0.8295
              Bcc     0.0112     1.503     0.536     0.501  0.9476  0.2740  0.1644
 
              Baa    -0.3566   -47.853   -17.075   -15.962  0.2989  0.8807 -0.3675
     3 C(13)  Bbb    -0.3442   -46.193   -16.483   -15.408  0.0135  0.3812  0.9244
              Bcc     0.7008    94.045    33.558    31.370  0.9542 -0.2813  0.1020
 
              Baa    -0.0083    -4.432    -1.582    -1.478  0.4457 -0.3099  0.8398
     4 H(1)   Bbb    -0.0072    -3.826    -1.365    -1.276  0.8577 -0.1209 -0.4998
              Bcc     0.0155     8.258     2.947     2.754  0.2564  0.9430  0.2119
 
              Baa    -0.4544    32.877    11.731    10.966 -0.4039 -0.6171  0.6753
     5 O(17)  Bbb    -0.4113    29.764    10.620     9.928  0.1265  0.6934  0.7093
              Bcc     0.8657   -62.640   -22.352   -20.895  0.9060 -0.3719  0.2020
 
              Baa    -0.0375    -5.036    -1.797    -1.680  0.9497  0.2044 -0.2373
     6 C(13)  Bbb    -0.0349    -4.688    -1.673    -1.564  0.1605  0.3332  0.9291
              Bcc     0.0725     9.724     3.470     3.244 -0.2690  0.9204 -0.2836
 
              Baa    -0.0838   -44.709   -15.953   -14.913  0.1834  0.8333 -0.5215
     7 H(1)   Bbb    -0.0819   -43.711   -15.597   -14.580  0.2393  0.4768  0.8459
              Bcc     0.1657    88.420    31.550    29.494  0.9535 -0.2799 -0.1119
 
              Baa    -0.0047    -2.512    -0.897    -0.838 -0.2804  0.5738  0.7695
     8 H(1)   Bbb    -0.0034    -1.820    -0.649    -0.607  0.1515  0.8180 -0.5548
              Bcc     0.0081     4.332     1.546     1.445  0.9478  0.0390  0.3163
 
              Baa    -0.0031    -1.645    -0.587    -0.549 -0.5023  0.5506  0.6667
     9 H(1)   Bbb    -0.0018    -0.942    -0.336    -0.314  0.2740 -0.6300  0.7267
              Bcc     0.0048     2.587     0.923     0.863  0.8202  0.5477  0.1655
 
              Baa    -0.0031    -1.651    -0.589    -0.551 -0.6504  0.6970  0.3018
    10 H(1)   Bbb    -0.0028    -1.481    -0.529    -0.494 -0.3293 -0.6168  0.7149
              Bcc     0.0059     3.132     1.118     1.045  0.6845  0.3657  0.6307
 
              Baa    -0.0099    -5.308    -1.894    -1.771 -0.2132 -0.1928  0.9578
    11 H(1)   Bbb    -0.0072    -3.824    -1.365    -1.276  0.9698 -0.1605  0.1836
              Bcc     0.0171     9.132     3.259     3.046  0.1183  0.9680  0.2212
 
              Baa    -0.0105    -5.593    -1.996    -1.866  0.3762  0.5978  0.7079
    12 H(1)   Bbb    -0.0058    -3.090    -1.103    -1.031  0.9200 -0.3315 -0.2090
              Bcc     0.0163     8.684     3.098     2.897  0.1097  0.7299 -0.6747
 
              Baa    -0.0092    -4.933    -1.760    -1.646  0.0439  0.3241  0.9450
    13 H(1)   Bbb    -0.0005    -0.245    -0.087    -0.082  0.7615  0.6015 -0.2416
              Bcc     0.0097     5.178     1.848     1.727 -0.6467  0.7302 -0.2204
 
              Baa    -0.9263   -48.483   -17.300   -16.172  0.0521 -0.2217  0.9737
    14 Cl(35) Bbb    -0.9249   -48.405   -17.272   -16.146  0.3147  0.9290  0.1947
              Bcc     1.8512    96.887    34.572    32.318  0.9478 -0.2962 -0.1181
 

 ---------------------------------------------------------------------------------

 No NMR shielding tensors so no spin-rotation constants.
 Leave Link  601 at Mon Oct  7 15:07:58 2024, MaxMem=  2684354560 cpu:               1.3 elap:               0.2
 (Enter /gpfs/fs1/soft/bebop/software/custom-built/gaussian/16-c.02/g16/l9999.exe)
 Unable to Open any file for archive entry.
 1\1\GINC-CSED-0008\FTS\UB2PLYPD3-FC\CC-pVTZ\C4H8Cl1O1(2)\COPAN\07-Oct-
 2024\1\\#P b2plypd3/cc-pvtz # SCF=(xqc) # POpt=(CalcFC,TS,NoEigen,MaxC
 ycles=60) # int=ultrafine\\comment:\\0,2\C\C,1,R1\C,1,R2,2,A2\H,1,R3,2
 ,A3,3,D3,0\O,3,R4,1,A4,2,D4,0\C,3,R5,1,A5,5,D5,0\H,3,R6,1,A6,5,D6,0\H,
 2,R7,1,A7,3,D7,0\H,2,R8,1,A8,8,D8,0\H,2,R9,1,A9,8,D9,0\H,6,R10,3,A10,1
 ,D10,0\H,6,R11,3,A11,11,D11,0\H,6,R12,3,A12,11,D12,0\X,7,R13,3,A13,6,D
 13,0\Cl,7,R14,14,A14,3,D14,0\\R1=1.49502606\R2=1.45268037\R3=1.0827154
 4\R4=1.36427006\R5=1.48712917\R6=1.45135453\R7=1.08695088\R8=1.0890902
 5\R9=1.09000672\R10=1.08811955\R11=1.08710329\R12=1.09160546\R14=1.440
 24857\A2=123.99726304\A3=116.98473685\A4=63.74279398\A5=135.21296588\A
 6=108.96009962\A7=111.3783874\A8=110.45431814\A9=109.60097969\A10=109.
 80627007\A11=110.01993359\A12=110.4731897\A14=86.54470259\D3=198.83985
 951\D4=99.55273905\D5=248.05717624\D6=105.87624824\D7=339.51186802\D8=
 239.15680906\D9=120.34871912\D10=148.51984795\D11=119.62707635\D12=240
 .33649097\D14=177.60008358\R13=1.\A13=90.\D13=310.8195\\Version=ES64L-
 G16RevC.01\State=2-A\HF=-691.9894941\MP2=-692.3553807\PUHF=-691.993283
 8\PMP2-0=-692.35564\S2=0.761512\S2-1=0.744253\S2A=0.750077\RMSD=5.420e
 -09\RMSF=4.290e-06\Dipole=0.2834705,-0.0384135,1.7269052\PG=C01 [X(C4H
 8Cl1O1)]\\@
 The archive entry for this job was punched.


 WE TEND TO MEET ANY NEW SITUATION BY REORGANIZING. IT CAN BE A
 WONDERFUL METHOD FOR CREATING THE ILLUSION OF PROGRESS WHILE PRODUCING
 CONFUSION, INEFFICIENCY, AND DEMORALIZATION.
     -- PETRONIUS ARBITER, 210 B.C.
 Job cpu time:       0 days 10 hours 33 minutes  3.0 seconds.
 Elapsed time:       0 days  1 hours 52 minutes 25.9 seconds.
 File lengths (MBytes):  RWF=  60780 Int=      0 D2E=      0 Chk=     13 Scr=      1
 Normal termination of Gaussian 16 at Mon Oct  7 15:08:02 2024.
