
                                 *****************
                                 * O   R   C   A *
                                 *****************

                                            #,                                       
                                            ###                                      
                                            ####                                     
                                            #####                                    
                                            ######                                   
                                           ########,                                 
                                     ,,################,,,,,                         
                               ,,#################################,,                 
                          ,,##########################################,,             
                       ,#########################################, ''#####,          
                    ,#############################################,,   '####,        
                  ,##################################################,,,,####,       
                ,###########''''           ''''###############################       
              ,#####''   ,,,,##########,,,,          '''####'''          '####       
            ,##' ,,,,###########################,,,                        '##       
           ' ,,###''''                  '''############,,,                           
         ,,##''                                '''############,,,,        ,,,,,,###''
      ,#''                                            '''#######################'''  
     '                                                          ''''####''''         
             ,#######,   #######,   ,#######,      ##                                
            ,#'     '#,  ##    ##  ,#'     '#,    #''#        ,####,    ,#,          
            ##       ##  ##   ,#'  ##            #'  '#       #'       ,# #          
            ##       ##  #######   ##           ,######,      #####,      #          
            '#,     ,#'  ##    ##  '#,     ,#' ,#      #,     #,   #      #          
             '#######'   ##     ##  '#######'  #'      '#     '####' #    #          



                #########################################################
                #                        -***-                          #
                #          Department of theory and spectroscopy        #
                #                                                       #
                #                      Frank Neese                      #
                #                                                       #
                #     Directorship, Architecture, Infrastructure        #
                #                    SHARK, DRIVERS                     #
                #        Core code/Algorithms in most modules           #
                #                                                       #
                #        Max Planck Institute fuer Kohlenforschung      #
                #                Kaiser Wilhelm Platz 1                 #
                #                 D-45470 Muelheim/Ruhr                 #
                #                      Germany                          #
                #                                                       #
                #                  All rights reserved                  #
                #                        -***-                          #
                #########################################################


                         Program Version 6.1.0  -  RELEASE   -
                                (GIT: $679e74b$)
                          ($2025-06-10 18:02:51 +0200$)


 With contributions from (in alphabetic order):
[Max-Planck-Institut fuer Kohlenforschung]                               
  Daniel Aravena         : Magnetic Suceptibility                        
  Michael Atanasov       : Ab Initio Ligand Field Theory (pilot matlab implementation)
  Alexander A. Auer      : GIAO ZORA, VPT2 properties, NMR spectrum      
  Ute Becker             : All parallelization in ORCA, NUMFREQ, NUMCALC 
  Giovanni Bistoni       : ED, misc. LED, open-shell LED, HFLD           
  Dmytro Bykov           : pre 5.0 version of the SCF Hessian            
  Marcos Casanova-Páez   : Triplet and SCS-CIS(D). UHF-(DLPNO)-IP/EA/STEOM-CCSD. UHF-CVS-IP/STEOM-CCSD   
  Vijay G. Chilkuri      : MRCI spin determinant printing, contributions to CSF-ICE 
  Pauline Colinet        : FMM embedding                                 
  Dipayan Datta          : RHF DLPNO-CCSD density                        
  Achintya Kumar Dutta   : EOM-CC, STEOM-CC                              
  Nicolas Foglia         : Exact transition moments, OPA infrastructure, MCD improvements    
  Dmitry Ganyushin       : Spin-Orbit,Spin-Spin,Magnetic field MRCI      
  Miquel Garcia-Rates    : C-PCM and meta-GGA Hessian, CCSD/C-PCM, Gaussian charge scheme 
  Tiago L. C. Gouveia    : GS-ROHF, GS-ROCIS                             
  Yang Guo               : DLPNO-NEVPT2, F12-NEVPT2, CIM, IAO-localization        
  Andreas Hansen         : Spin unrestricted coupled pair/coupled cluster methods 
  Ingolf Harden          : AUTO-CI MPn and infrastructure                
  Benjamin Helmich-Paris : MC-RPA, TRAH-(SCF,CASSCF), AVAS, COSX integrals, SCF dyn. polar., MC-PDFT, srDFT 
  Lee Huntington         : MR-EOM, pCC                                   
  Robert Izsak           : Overlap fitted RIJCOSX, COSX-SCS-MP3, EOM     
  Riya Kayal             : Wick's Theorem for AUTO-CI, AUTO-CI UHF-CCSDT 
  Emily Kempfer          : AUTO-CI RHF CISDT and CCSDT, approximate NEVPT4
  Christian Kollmar      : KDIIS, OOCD, Brueckner-CCSD(T), CCSD density, CASPT2, CASPT2-K, improved NEVPT2 
  Axel Koslowski         : Symmetry handling                             
  Simone Kossmann        : meta-GGA functionals, TD-DFT gradient, OOMP2, (MP2 Hessian; deprecated post 5.0) 
  Lucas Lang             : DCDCAS, Hyperfine gauge corrections, ICE-SOC+SSC
  Marvin Lechner         : AUTO-CI (C++ implementation), FIC-MRCC        
  Spencer Leger          : CASSCF response                               
  Dagmar Lenk            : GEPOL surface, SMD, ORCA-2-JSON               
  Dimitrios Liakos       : Extrapolation schemes; Compound Job, Property file
  Dimitrios Manganas     : Further ROCIS development; embedding schemes. LFT, Crystal Embedding 
  Dimitrios Pantazis     : SARC Basis sets                               
  Anastasios Papadopoulos: AUTO-CI, single reference methods and gradients 
  Taras Petrenko         : pre 6.0 DFT Hessian and TD-DFT gradient,  ECA, NRVS 
  Petra Pikulova         : Analytic Raman intensities                    
  Peter Pinski           : DLPNO-MP2, DLPNO-MP2 Gradient                 
  Shashank Vittal Rao    : ES-AILFT, MagRelax                            
  Christoph Reimann      : Effective Core Potentials                     
  Marius Retegan         : Local ZFS, SOC                                
  Christoph Riplinger    : Optimizer, TS searches, QM/MM, DLPNO-CCSD(T), (RO)-DLPNO pert. Triples 
  Michael Roemelt        : Original ROCIS implementation, recursive CI coupling coefficients
  Masaaki Saitow         : Open-shell DLPNO-CCSD energy and density      
  Barbara Sandhoefer     : DKH picture change effects                    
  Yorick L. A. Schmerwitz: GMF and freeze-and-release deltaSCF, NEB S-IDPP initial path                    
  Kantharuban Sivalingam : CASSCF convergence/infrastructure, NEVPT2, NEVPT3, NEVPT4(SD), FIC-MRCI and CEPA variants
  Bernardo de Souza      : ESD, SOC TD-DFT                               
  Georgi L. Stoychev     : AutoAux, RI-MP2 NMR, DLPNO-MP2 response, X2C  
  Van Anh Tran           : RI-MP2 g-tensors                              
  Willem Van den Heuvel  : Paramagnetic NMR                              
  Zikuan Wang            : NOTCH, Electric field optimization            
  Frank Wennmohs         : Technical directorship and infrastructure     
  Hang Xu                : AUTO-CI-Response properties                   
                                                                         
[FACCTs GmbH]                                                            
  Markus Bursch, Nicolas Foglia, Miquel Garcia-Rates, Ingolf Harden, Hagen Neugebauer, Anastasios Papadopoulos, 
  Christoph Riplinger, Bernardo de Souza, Georgi L. Stoychev                                                    
                                                                 
  APM, various basis sets, CI-OPT, improved COSX, DLPNO-Multilevel,           
  DOCKER, DRACO, updates on ESD, Fragmentator, GOAT, IRC, LR-CPCM, L-BFGS, MBIS, meta-GGA TD-DFT gradient, ML-optimized integration grids, 
  MM, NACMEs, nearIR, NEB, NEB-TS, NL-DFT gradient (VV10), 2- and 3-layer-ONIOM, interface openCOSMO-RS, QMMM,   
  Crystal-QMMM, RESP, rigid body optimization, SF, symmetry and pop. for TD-DFT, various functionals, SOLVATOR                                   
                                                                         
[Other institutions]                                                     
  V. Asgeirsson          : NEB                                           
  Christoph Bannwarth    : sTDA-DFT, sTD-DFT, PBEh-3c, B97-3c, D3        
  Giovanni Bistoni       : ETS/NOCV, ADLD/ADEX, COVALED                  
  Martin Brehm           : Molecular dynamics                            
  Ronald Cardenas        : ETS/NOCV                                      
  Martina Colucci        : COVALED                                       
  Sebastian Ehlert       : rSCAN, r2SCAN, r2SCAN-3c, D4, dhf basis sets  
  Marvin Friede          : D4 for Fr, Ra, Ac-Lr                          
  Lars Goerigk           : TD-DFT with DH, B97 family of functionals     
  Stefan Grimme          : VdW corrections, initial TS optimization, DFT functionals, gCP, sTDA/sTD-DF 
  Waldemar Hujo          : DFT-NL                                        
  H. Jonsson             : NEB                                           
  Holger Kruse           : gCP                                           
  Marcel Mueller         : wB97X-3c, vDZP basis set                      
  Hagen Neugebauer       : wr2SCAN, Native XTB                           
  Gianluca Regni         : ADLD/ADEX                                     
  Tobias Risthaus        : pre 6.0 range-separated hybrid DFT and stability analysis
  Lukas Wittmann         : regularized MP2, r2SCAN double-hybrids, wr2SCAN        
                                                                         
We gratefully acknowledge several colleagues who have allowed us to      
interface, adapt or use parts of their codes:                            
  Ed Valeev, F. Pavosevic, A. Kumar             : LibInt (2-el integral package), F12 methods 
  Garnet Chan, S. Sharma, J. Yang, R. Olivares  : DMRG                   
  Ulf Ekstrom                                   : XCFun DFT Library      
  Mihaly Kallay                                 : mrcc  (arbitrary order and MRCC methods)
  Frank Weinhold                                : gennbo (NPA and NBO analysis)           
  Simon Mueller                                 : openCOSMO-RS                            
  Christopher J. Cramer and Donald G. Truhlar   : smd solvation model                     
  S Lehtola, MJT Oliveira, MAL Marques          : LibXC Library                           
  Liviu Ungur et al                             : ANISO software                          


 Your calculation uses the libint2 library for the computation of 2-el integrals
 For citations please refer to: http://libint.valeyev.net

 Your ORCA version has been built with support for libXC version: 7.0.0
 For citations please refer to: https://libxc.gitlab.io

 This ORCA versions uses:
   CBLAS   interface :  Fast vector & matrix operations
   LAPACKE interface :  Fast linear algebra routines
   SCALAPACK package :  Parallel linear algebra routines
   Shared memory     :  Shared parallel matrices
   BLAS/LAPACK       :  OpenBLAS 0.3.29  USE64BITINT DYNAMIC_ARCH NO_AFFINITY SkylakeX SINGLE_THREADED
        Core in use  :  SkylakeX
   Copyright (c) 2011-2014, The OpenBLAS Project


  ***********************************
  * Starting time: Wed Sep  3 15:56:20 2025
  * Host name:     csed-0037
  * Process ID:    2923868
  * Working dir.:  /gpfs/fs1/home/copan/proj/project-dimethyl-oxirane-cl-abstraction/calc_well_b/full_opt_revdsd
  ***********************************

NOTE: MaxCore=10000 MB was set to SCF,MP2,MDCI,CIPSI,MRCI,RASCI and CIS
      => If you want to overwrite this, your respective input block should be placed after the MaxCore statement


***************************************
The coordinates will be read from file: guess.xyz
***************************************


Your calculation utilizes the atom-pairwise dispersion correction
based on EEQ partial charges (D4)


Warning: RI is on but no J-basis has been assigned. Assigning Def2/J (nothing to worry about!)
================================================================================

----- Orbital basis set information -----
Your calculation utilizes the basis: def2-TZVPP
   F. Weigend and R. Ahlrichs, Phys. Chem. Chem. Phys. 7, 3297 (2005).

----- AuxJ basis set information -----
Your calculation utilizes the auxiliary basis: def2/J
   H-Rn: F. Weigend, Phys. Chem. Chem. Phys. 8, 1057 (2006).
   Fr-Lr: K. Eichkorn, F. Weigend, O. Treutler, R. Ahlrichs; Theor. Chem. Acc. 97, 119 (1997).

----- AuxC basis set information -----
Your calculation utilizes the auxiliary basis: def2-TZVPP/C
  H-La, Hf-Rn : A. Hellweg, C. Hattig, S. Hofener and W. Klopper, Theor. Chem. Acc. 117, 587 (2007).
        Ce-Lu : J. Chmela and M. E. Harding, Mol. Phys. (2018).

================================================================================
                                        WARNINGS
                       Please study these warnings very carefully!
================================================================================


WARNING: your system is open-shell and RHF/RKS was chosen
  ===> : WILL SWITCH to UHF/UKS


WARNING: The frozen-core approximation for MP2-gradient calculations is turned on by default.

WARNING: The environment variable RSH_COMMAND is not set!
  ===> : All Displacements for the Numerical Hessian or Gradient calculation
         will be started on localhost

WARNING: Geometry Optimization
  ===> : Switching off AutoStart
         For restart on a previous wavefunction, please use MOREAD

WARNING: The frozen-core approximation is turned on by default for 
         the MP2 part of double-hybrid DFT.

================================================================================
                                       INPUT FILE
================================================================================
NAME = opt.inp
|  1> % MaxCore 10000
|  2> ! PAL8
|  3> ! REVDSD-PBEP86-D4/2021 def2-TZVPP def2-TZVPP/c
|  4> ! Opt
|  5> ! NumFreq
|  6> * xyzfile 0 2 guess.xyz
|  7> 
|  8> 
|  9>                          ****END OF INPUT****
================================================================================

                       *****************************
                       * Geometry Optimization Run *
                       *****************************

Geometry optimization settings:
Update method            Update   .... BFGS
Choice of coordinates    CoordSys .... (2022) Redundant Internals
Initial Hessian          InHess   .... Almloef's Model
Max. no of cycles        MaxIter  .... 50

Convergence Tolerances:
Energy Change            TolE     ....  5.0000e-06 Eh
Max. Gradient            TolMAXG  ....  3.0000e-04 Eh/bohr
RMS Gradient             TolRMSG  ....  1.0000e-04 Eh/bohr
Max. Displacement        TolMAXD  ....  4.0000e-03 bohr
RMS Displacement         TolRMSD  ....  2.0000e-03 bohr
Strict Convergence                .... False

------------------------------------------------------------------------------
                        ORCA OPTIMIZATION COORDINATE SETUP
------------------------------------------------------------------------------

The optimization will be done in redundant internal coordinates (2022)
Making redundant internal coordinates   ...  (2022 redundants) done
Evaluating the initial hessian          ...  (Almloef) done
Evaluating the coordinates              ...  done
Calculating the B-matrix                .... done
Calculating the G-matrix                .... done
The number of degrees of freedom        ....   65

    -----------------------------------------------------------------
                    Redundant Internal Coordinates


    -----------------------------------------------------------------
         Definition                    Initial Value    Approx d2E/dq
    -----------------------------------------------------------------
      1. B(C   1,C   0)                  1.4962         0.423018   
      2. B(C   2,C   0)                  1.4493         0.502537   
      3. B(H   3,C   0)                  1.0830         0.369422   
      4. B(O   4,C   2)                  1.3637         0.616303   
      5. B(O   4,C   0)                  1.4918         0.385021   
      6. B(C   5,C   2)                  1.4834         0.443347   
      7. B(H   6,C   2)                  1.7178         0.035881   
      8. B(H   7,C   1)                  1.0871         0.363989   
      9. B(H   8,C   1)                  1.0892         0.361196   
     10. B(H   9,C   1)                  1.0901         0.359950   
     11. B(H  10,C   5)                  1.0883         0.362343   
     12. B(H  11,C   5)                  1.0873         0.363659   
     13. B(H  12,C   5)                  1.0934         0.355648   
     14. B(Cl 13,H   6)                  1.3486         0.312546   
     15. A(C   1,C   0,H   3)          116.6543         0.332437   
     16. A(H   3,C   0,O   4)          111.8855         0.325345   
     17. A(C   1,C   0,O   4)          115.3996         0.370776   
     18. A(C   1,C   0,C   2)          123.9324         0.390770   
     19. A(C   2,C   0,H   3)          116.9928         0.342116   
     20. A(C   2,C   0,O   4)           55.2274         0.381978   
     21. A(H   7,C   1,H   9)          108.6834         0.291312   
     22. A(C   0,C   1,H   8)          110.5562         0.331200   
     23. A(C   0,C   1,H   9)          109.6330         0.331010   
     24. A(C   0,C   1,H   7)          111.2628         0.331622   
     25. A(H   8,C   1,H   9)          107.9410         0.290959   
     26. A(H   7,C   1,H   8)          108.6816         0.291470   
     27. A(C   0,C   2,O   4)           63.9690         0.414896   
     28. A(C   5,C   2,H   6)          107.1402         0.234144   
     29. A(O   4,C   2,H   6)          112.0111         0.244091   
     30. A(C   0,C   2,H   6)          107.2417         0.238319   
     31. A(O   4,C   2,C   5)          124.0830         0.405782   
     32. A(C   0,C   2,C   5)          136.2383         0.393993   
     33. A(C   0,O   4,C   2)           60.8035         0.393303   
     34. A(H  11,C   5,H  12)          108.8794         0.290720   
     35. A(H  10,C   5,H  12)          108.2511         0.290555   
     36. A(C   2,C   5,H  12)          110.8134         0.332930   
     37. A(H  10,C   5,H  11)          108.6873         0.291574   
     38. A(C   2,C   5,H  11)          110.2182         0.334163   
     39. A(C   2,C   5,H  10)          109.9358         0.333962   
     40. L(C   2,H   6,Cl 13,C   5, 2) 188.9232         0.214293   
     41. L(C   2,H   6,Cl 13,C   5, 1) 179.9544         0.214293   
     42. D(H   8,C   1,C   0,C   2)   -141.1919         0.014154   
     43. D(H   7,C   1,C   0,H   3)    177.9046         0.014154   
     44. D(H   8,C   1,C   0,O   4)    -77.3901         0.014154   
     45. D(H   7,C   1,C   0,O   4)     43.4741         0.014154   
     46. D(H   8,C   1,C   0,H   3)     57.0403         0.014154   
     47. D(H   7,C   1,C   0,C   2)    -20.3277         0.014154   
     48. D(O   4,C   2,C   0,C   1)     99.3366         0.020002   
     49. D(H   6,C   2,C   0,H   3)      7.6156         0.020002   
     50. D(H   6,C   2,C   0,C   1)   -154.0957         0.020002   
     51. D(C   5,C   2,C   0,O   4)   -113.0604         0.020002   
     52. D(C   5,C   2,C   0,H   3)    147.9875         0.020002   
     53. D(C   5,C   2,C   0,C   1)    -13.7238         0.020002   
     54. D(O   4,C   2,C   0,H   3)    -98.9521         0.020002   
     55. D(C   2,O   4,C   0,H   3)    108.4551         0.011741   
     56. D(C   2,O   4,C   0,C   1)   -114.9996         0.011741   
     57. D(C   0,O   4,C   2,H   6)    -99.1118         0.030728   
     58. D(C   0,O   4,C   2,C   5)    129.7915         0.030728   
     59. D(H  12,C   5,C   2,C   0)     29.6583         0.015528   
     60. D(H  11,C   5,C   2,O   4)   -177.5166         0.015528   
     61. D(H  11,C   5,C   2,C   0)    -90.9320         0.015528   
     62. D(H  10,C   5,C   2,H   6)    -70.3217         0.015528   
     63. D(H  11,C   5,C   2,H   6)     49.4659         0.015528   
     64. D(H  10,C   5,C   2,O   4)     62.6959         0.015528   
     65. D(H  10,C   5,C   2,C   0)    149.2804         0.015528   
    -----------------------------------------------------------------

Number of atoms                         .... 14
Number of degrees of freedom            .... 65


         *************************************************************
         *                GEOMETRY OPTIMIZATION CYCLE   1            *
         *************************************************************
---------------------------------
CARTESIAN COORDINATES (ANGSTROEM)
---------------------------------
  C     -1.130633   -0.770817   -0.038744
  C     -2.529471   -0.795363   -0.568989
  C     -0.356792    0.440494    0.146447
  H     -0.582377   -1.704283   -0.070961
  O     -0.952375   -0.065907    1.263849
  C     -0.463559    1.856220   -0.283392
  H      1.301938    0.005117    0.047536
  H     -3.009009    0.174251   -0.461166
  H     -3.125135   -1.539671   -0.042218
  H     -2.515966   -1.062680   -1.625732
  H     -0.020338    2.506658    0.468209
  H      0.060560    2.003724   -1.224568
  H     -1.510154    2.145263   -0.412184
  Cl     2.582483   -0.375549   -0.136567

----------------------------
CARTESIAN COORDINATES (A.U.)
----------------------------
  NO LB      ZA    FRAG     MASS         X           Y           Z
   0 C     6.0000    0    12.011   -2.136587   -1.456633   -0.073216
   1 C     6.0000    0    12.011   -4.780007   -1.503018   -1.075233
   2 C     6.0000    0    12.011   -0.674239    0.832413    0.276745
   3 H     1.0000    0     1.008   -1.100533   -3.220628   -0.134097
   4 O     8.0000    0    15.999   -1.799728   -0.124546    2.388328
   5 C     6.0000    0    12.011   -0.876000    3.507747   -0.535533
   6 H     1.0000    0     1.008    2.460306    0.009670    0.089830
   7 H     1.0000    0     1.008   -5.686203    0.329287   -0.871477
   8 H     1.0000    0     1.008   -5.905649   -2.909557   -0.079780
   9 H     1.0000    0     1.008   -4.754487   -2.008174   -3.072188
  10 H     1.0000    0     1.008   -0.038433    4.736897    0.884787
  11 H     1.0000    0     1.008    0.114442    3.786490   -2.314098
  12 H     1.0000    0     1.008   -2.853777    4.053960   -0.778915
  13 Cl   17.0000    0    35.453    4.880186   -0.709685   -0.258074

--------------------------------
INTERNAL COORDINATES (ANGSTROEM)
--------------------------------
 C      0   0   0     0.000000000000     0.00000000     0.00000000
 C      1   0   0     1.496165103317     0.00000000     0.00000000
 C      1   2   0     1.449275659936   123.93241027     0.00000000
 H      1   2   3     1.083042635255   116.65426767   198.23220859
 O      3   1   2     1.363725893387    63.96904317    99.33658780
 C      3   1   2     1.483388305632   136.23826864   346.27617249
 H      3   1   2     1.717766494885   107.24165148   205.90426504
 H      2   1   3     1.087075803138   111.26276603   339.67234989
 H      2   1   3     1.089172936774   110.55622937   218.80811340
 H      2   1   3     1.090113082007   109.63300803    99.92217869
 H      6   3   1     1.088309932825   109.93582859   149.28041439
 H      6   3   1     1.087322592037   110.21823983   269.06796931
 H      6   3   1     1.093386632961   110.81335227    29.65828349
 Cl     7   3   1     1.348553304542   175.09649111    59.30899987

---------------------------
INTERNAL COORDINATES (A.U.)
---------------------------
 C      0   0   0     0.000000000000     0.00000000     0.00000000
 C      1   0   0     2.827342296400     0.00000000     0.00000000
 C      1   2   0     2.738734089837   123.93241027     0.00000000
 H      1   2   3     2.046653971993   116.65426767   198.23220859
 O      3   1   2     2.577068460238    63.96904317    99.33658780
 C      3   1   2     2.803197647906   136.23826864   346.27617249
 H      3   1   2     3.246108237359   107.24165148   205.90426504
 H      2   1   3     2.054275554744   111.26276603   339.67234989
 H      2   1   3     2.058238562982   110.55622937   218.80811340
 H      2   1   3     2.060015179998   109.63300803    99.92217869
 H      6   3   1     2.056607721866   109.93582859   149.28041439
 H      6   3   1     2.054741918174   110.21823983   269.06796931
 H      6   3   1     2.066201294787   110.81335227    29.65828349
 Cl     7   3   1     2.548396422578   175.09649111    59.30899987

---------------------
BASIS SET INFORMATION
---------------------
There are 4 groups of distinct atoms

 Group   1 Type C   : 11s6p2d1f contracted to 5s3p2d1f pattern {62111/411/11/1}
 Group   2 Type H   : 5s2p1d contracted to 3s2p1d pattern {311/11/1}
 Group   3 Type O   : 11s6p2d1f contracted to 5s3p2d1f pattern {62111/411/11/1}
 Group   4 Type Cl  : 14s9p3d1f contracted to 5s5p3d1f pattern {73211/51111/111/1}

Atom   0C    basis set group =>   1
Atom   1C    basis set group =>   1
Atom   2C    basis set group =>   1
Atom   3H    basis set group =>   2
Atom   4O    basis set group =>   3
Atom   5C    basis set group =>   1
Atom   6H    basis set group =>   2
Atom   7H    basis set group =>   2
Atom   8H    basis set group =>   2
Atom   9H    basis set group =>   2
Atom  10H    basis set group =>   2
Atom  11H    basis set group =>   2
Atom  12H    basis set group =>   2
Atom  13Cl   basis set group =>   4
---------------------------------
AUXILIARY/J BASIS SET INFORMATION
---------------------------------
There are 4 groups of distinct atoms

 Group   1 Type C   : 12s5p4d2f1g contracted to 6s4p3d1f1g pattern {711111/2111/211/2/1}
 Group   2 Type H   : 5s2p1d contracted to 3s1p1d pattern {311/2/1}
 Group   3 Type O   : 12s5p4d2f1g contracted to 6s4p3d1f1g pattern {711111/2111/211/2/1}
 Group   4 Type Cl  : 14s5p5d2f1g contracted to 8s4p3d1f1g pattern {71111111/2111/311/2/1}

Atom   0C    basis set group =>   1
Atom   1C    basis set group =>   1
Atom   2C    basis set group =>   1
Atom   3H    basis set group =>   2
Atom   4O    basis set group =>   3
Atom   5C    basis set group =>   1
Atom   6H    basis set group =>   2
Atom   7H    basis set group =>   2
Atom   8H    basis set group =>   2
Atom   9H    basis set group =>   2
Atom  10H    basis set group =>   2
Atom  11H    basis set group =>   2
Atom  12H    basis set group =>   2
Atom  13Cl   basis set group =>   4
---------------------------------
AUXILIARY/C BASIS SET INFORMATION
---------------------------------
There are 4 groups of distinct atoms

 Group   1 Type C   : 8s6p5d3f1g contracted to 8s6p4d3f1g pattern {11111111/111111/2111/111/1}
 Group   2 Type H   : 4s3p2d1f contracted to 4s3p2d1f pattern {1111/111/11/1}
 Group   3 Type O   : 8s6p5d3f1g contracted to 8s6p4d3f1g pattern {11111111/111111/2111/111/1}
 Group   4 Type Cl  : 11s8p7d5f2g contracted to 11s8p7d5f2g pattern {11111111111/11111111/1111111/11111/11}

Atom   0C    basis set group =>   1
Atom   1C    basis set group =>   1
Atom   2C    basis set group =>   1
Atom   3H    basis set group =>   2
Atom   4O    basis set group =>   3
Atom   5C    basis set group =>   1
Atom   6H    basis set group =>   2
Atom   7H    basis set group =>   2
Atom   8H    basis set group =>   2
Atom   9H    basis set group =>   2
Atom  10H    basis set group =>   2
Atom  11H    basis set group =>   2
Atom  12H    basis set group =>   2
Atom  13Cl   basis set group =>   4


           ************************************************************
           *        Program running with 8 parallel MPI-processes     *
           *              working on a common directory               *
           ************************************************************
------------------------------------------------------------------------------
                             ORCA STARTUP CALCULATIONS
                           -- RI-GTO INTEGRALS CHOSEN --
------------------------------------------------------------------------------
------------------------------------------------------------------------------
                   ___                                                        
                  /   \      - P O W E R E D   B Y -                         
                 /     \                                                     
                 |  |  |   _    _      __       _____    __    __             
                 |  |  |  | |  | |    /  \     |  _  \  |  |  /  |          
                  \  \/   | |  | |   /    \    | | | |  |  | /  /          
                 / \  \   | |__| |  /  /\  \   | |_| |  |  |/  /          
                |  |  |   |  __  | /  /__\  \  |    /   |      \           
                |  |  |   | |  | | |   __   |  |    \   |  |\   \          
                \     /   | |  | | |  |  |  |  | |\  \  |  | \   \       
                 \___/    |_|  |_| |__|  |__|  |_| \__\ |__|  \__/        
                                                                              
                      - O R C A' S   B I G   F R I E N D -                    
                                      &                                       
                       - I N T E G R A L  F E E D E R -                       
                                                                              
 v1 FN, 2020, v2 2021, v3 2022-2024                                           
------------------------------------------------------------------------------


----------------------
SHARK INTEGRAL PACKAGE
----------------------

Number of atoms                             ...     14
Number of basis functions                   ...    309
Number of shells                            ...    117
Maximum angular momentum                    ...      3
Integral batch strategy                     ... SHARK/LIBINT Hybrid
RI-J (if used) integral strategy            ... SPLIT-RIJ (Revised 2003 algorithm where possible)
Printlevel                                  ...      1
Contraction scheme used                     ... SEGMENTED contraction
Prescreening option                         ... SCHWARTZ
   Thresh                                   ... 2.500e-11
   Tcut                                     ... 2.500e-12
   Tpresel                                  ... 2.500e-12 
Coulomb Range Separation                    ... NOT USED
Exchange Range Separation                   ... NOT USED
Multipole approximations                    ... NOT USED
Finite Nucleus Model                        ... NOT USED
CABS basis                                  ... NOT available
Auxiliary Coulomb fitting basis             ... AVAILABLE
   # of basis functions in Aux-J            ...    384
   # of shells in Aux-J                     ...    132
   Maximum angular momentum in Aux-J        ...      4
Auxiliary J/K fitting basis                 ... NOT available
Auxiliary Correlation fitting basis         ... AVAILABLE
   # of basis functions in Aux-C            ...    743
   # of shells in Aux-C                     ...    223
   Maximum angular momentum in Aux-C        ...      4
Auxiliary 'external' fitting basis          ... NOT available

Checking pre-screening integrals            ... done (  0.0 sec) Dimension = 117
   => SHARK Basis and OBASIS are compatible. Storing Pre-screening
Shell pair information
Shell pair cut-off parameter TPreSel        ...   2.5e-12
Total number of shell pairs                 ...      6903
Shell pairs after pre-screening             ...      6196
Total number of primitive shell pairs       ...     18505
Primitive shell pairs kept                  ...     12903
          la=0 lb=0:   1328 shell pairs
          la=1 lb=0:   1749 shell pairs
          la=1 lb=1:    606 shell pairs
          la=2 lb=0:    991 shell pairs
          la=2 lb=1:    670 shell pairs
          la=2 lb=2:    205 shell pairs
          la=3 lb=0:    304 shell pairs
          la=3 lb=1:    204 shell pairs
          la=3 lb=2:    118 shell pairs
          la=3 lb=3:     21 shell pairs

Checking whether 4 symmetric matrices of dimension 309 fit in memory
:Max Core in MB      =  10000.00
 MB in use           =     11.08
 MB left             =   9988.92
 MB needed           =      1.46
 Data fit in memory  = YES
Calculating RI/J V-Matrix + Cholesky decomp.... done (  0.0 sec)
Calculating RI/C V-Matrix + Cholesky decomp.... done (  0.0 sec)
Calculating Nuclear repulsion               ... done (  0.0 sec) ENN=    277.671730637689 Eh

Diagonalization of the overlap matrix:
Smallest eigenvalue                        ... 1.140e-04
Time for diagonalization                   ...    0.009 sec
Threshold for overlap eigenvalues          ... 1.000e-07
Number of eigenvalues below threshold      ... 0
Time for construction of square roots      ...    0.004 sec
Total time needed                          ...    0.014 sec

-------------------
DFT GRID GENERATION
-------------------

General Integration Accuracy     IntAcc      ... 4.388
Radial Grid Type                 RadialGrid  ... OptM3 with GC (2021)
Angular Grid (max. ang.)         AngularGrid ... 4 (Lebedev-302)
Angular grid pruning method      GridPruning ... 4 (adaptive)
Weight generation scheme         WeightScheme... mBecke (2022)
Basis function cutoff            BFCut       ... 1.0000e-11
Integration weight cutoff        WCut        ... 1.0000e-14
Partially contracted basis set               ... off
Rotationally invariant grid construction     ... off
Angular grids for H and He will be reduced by one unit

Total number of grid points                  ...    63394
Total number of batches                      ...      997
Average number of points per batch           ...       63
Average number of grid points per atom       ...     4528

--------------------
COSX GRID GENERATION
--------------------

GRIDX 1
-------
General Integration Accuracy     IntAcc      ... 3.816
Radial Grid Type                 RadialGrid  ... OptM3 with GC (2021)
Angular Grid (max. ang.)         AngularGrid ... 1 (Lebedev-50)
Angular grid pruning method      GridPruning ... 4 (adaptive)
Weight generation scheme         WeightScheme... mBecke (2022)
Basis function cutoff            BFCut       ... 1.0000e-11
Integration weight cutoff        WCut        ... 1.0000e-14
Partially contracted basis set               ... on
Rotationally invariant grid construction     ... off
Angular grids for H and He will be reduced by one unit

Total number of grid points                  ...     9183
Total number of batches                      ...       80
Average number of points per batch           ...      114
Average number of grid points per atom       ...      656
UseSFitting                                  ... on

GRIDX 2
-------
General Integration Accuracy     IntAcc      ... 4.020
Radial Grid Type                 RadialGrid  ... OptM3 with GC (2021)
Angular Grid (max. ang.)         AngularGrid ... 2 (Lebedev-110)
Angular grid pruning method      GridPruning ... 4 (adaptive)
Weight generation scheme         WeightScheme... mBecke (2022)
Basis function cutoff            BFCut       ... 1.0000e-11
Integration weight cutoff        WCut        ... 1.0000e-14
Partially contracted basis set               ... on
Rotationally invariant grid construction     ... off
Angular grids for H and He will be reduced by one unit

Total number of grid points                  ...    17183
Total number of batches                      ...      142
Average number of points per batch           ...      121
Average number of grid points per atom       ...     1227
UseSFitting                                  ... on

GRIDX 3
-------
General Integration Accuracy     IntAcc      ... 4.338
Radial Grid Type                 RadialGrid  ... OptM3 with GC (2021)
Angular Grid (max. ang.)         AngularGrid ... 3 (Lebedev-194)
Angular grid pruning method      GridPruning ... 4 (adaptive)
Weight generation scheme         WeightScheme... mBecke (2022)
Basis function cutoff            BFCut       ... 1.0000e-11
Integration weight cutoff        WCut        ... 1.0000e-14
Partially contracted basis set               ... on
Rotationally invariant grid construction     ... off
Angular grids for H and He will be reduced by one unit

Total number of grid points                  ...    38241
Total number of batches                      ...      305
Average number of points per batch           ...      125
Average number of grid points per atom       ...     2732
UseSFitting                                  ... on
Grids setup in   0.5 sec
Initializing property integral containers    ... done (  0.0 sec)

SHARK setup successfully completed in   0.7 seconds

Maximum memory used throughout the entire STARTUP-calculation: 24.9 MB


           ************************************************************
           *        Program running with 8 parallel MPI-processes     *
           *              working on a common directory               *
           ************************************************************
-------------------------------------------------------------------------------
                                 ORCA GUESS
                   Start orbitals & Density for SCF / CASSCF
-------------------------------------------------------------------------------

------------
SCF SETTINGS
------------
Hamiltonian:
 Density Functional     Method          .... DFT(GTOs)
 Exchange Functional    Exchange        .... PBE
   PBE kappa parameter   XKappa         ....  0.804000
   PBE mue parameter    XMuePBE         ....  0.219520
 Correlation Functional Correlation     .... P86
 LDA part of GGA corr.  LDAOpt          .... VWN-5
 Gradients option       PostSCFGGA      .... off
 Hybrid DFT is turned on
   Fraction HF Exchange ScalHFX         ....  0.690000
   Scaling of DF-GGA-X  ScalDFX         ....  0.310000
   Scaling of DF-GGA-C  ScalDFC         ....  0.422400
   Scaling of DF-LDA-C  ScalLDAC        ....  0.422400
   Perturbative correction              ....  1.000000
 RI-approximation to the Coulomb term is turned on
   Number of AuxJ basis functions       .... 384
   RIJ-COSX (HFX calculated with COS-X)).... on


General Settings:
 Integral files         IntName         .... opt
 Hartree-Fock type      HFTyp           .... UHF
 Total Charge           Charge          ....    0
 Multiplicity           Mult            ....    2
 Number of Electrons    NEL             ....   57
 Basis Dimension        Dim             ....  309
 Nuclear Repulsion      ENuc            ....    277.6717306377 Eh

Convergence Acceleration:
 AO-DIIS                CNVDIIS         .... on
   Start iteration      DIISMaxIt       ....    12
   Startup error        DIISStart       ....  0.200000
   # of expansion vecs  DIISMaxEq       ....     5
   Bias factor          DIISBfac        ....   1.050
   Max. coefficient     DIISMaxC        ....  10.000
 MO-DIIS                CNVKDIIS        .... off
 Trust-Rad. Augm. Hess. CNVTRAH         .... auto
   Auto Start mean grad. ratio tolernc. ....  1.125000
   Auto Start start iteration           ....    50
   Auto Start num. interpolation iter.  ....    10
   Max. Number of Micro iterations      ....    24
   Max. Number of Macro iterations      .... Maxiter - #DIIS iter
   Number of Davidson start vectors     ....     2
   Converg. threshold    (grad. norm)   ....   1.000e-05
   Grad. Scal. Fac. for Micro threshold ....   0.100
   Minimum threshold for Micro iter.    ....   1.000e-02
   NR start threshold (gradient norm)   ....   1.000e-04
   Initial trust radius                 ....   0.400
   Minimum AH scaling param. (alpha)    ....   1.000
   Maximum AH scaling param. (alpha)    .... 1000.000
   Quad. conv. algorithm                .... NR
   White noise on init. David. guess    .... on
   Maximum white noise                  ....   0.010
   Pseudo random numbers                .... off
   Inactive MOs                         .... canonical
   Orbital update algorithm             .... Taylor
   Preconditioner                       .... Diag
   Full preconditioner red. dimension   ....   250
 SOSCF                 CNVSOSCF           .... on
   Start iteration     SOSCFMaxIt         ....   150
   Startup grad/error  SOSCFStart         ....  0.003300
   Hessian update      SOSCFHessUp        .... L-BFGS
   Autom. constraints  SOSCFAutoConstrain .... off
 Level Shifting         CNVShift        .... on
   Level shift para.    LevelShift      ....    0.2500
   Turn off err/grad.   ShiftErr        ....    0.0010
 Zerner damping         CNVZerner       .... off
 Static damping         CNVDamp         .... on
   Fraction old density DampFac         ....    0.7000
   Max. Damping (<1)    DampMax         ....    0.9800
   Min. Damping (>=0)   DampMin         ....    0.0000
   Turn off err/grad.   DampErr         ....    0.1000

SCF Procedure:
 Maximum # iterations   MaxIter         ....   125
 SCF integral mode      SCFMode         .... Direct
   Integral package                     .... SHARK and LIBINT hybrid scheme
 Reset frequency        DirectResetFreq ....    20
 Integral Threshold     Thresh          ....  2.500e-11 Eh
 Primitive CutOff       TCut            ....  2.500e-12 Eh

Convergence Tolerance:
 Convergence Check Mode ConvCheckMode   .... Total+1el-Energy
 Convergence forced     ConvForced      .... 0
 Energy Change          TolE            ....  1.000e-08 Eh
 1-El. energy change                    ....  1.000e-05 Eh
 Orbital Gradient       TolG            ....  1.000e-05
 Orbital Rotation angle TolX            ....  1.000e-05
 DIIS Error             TolErr          ....  5.000e-07

------------------------------
INITIAL GUESS: MODEL POTENTIAL
------------------------------
Loading Hartree-Fock densities                     ... done
Calculating cut-offs                               ... done
Initializing the effective Hamiltonian             ... done
Setting up the integral package (SHARK)            ... done
Starting the Coulomb interaction                   ... done (   0.0 sec)
Making the grid                                    ... done (   0.1 sec)
Mapping shells                                     ... done
Starting the XC term evaluation                    ... done (   0.0 sec)
  promolecular density results
     # of electrons  =     56.998828062
     EX              =    -58.332310465
     EC              =      0.024263592
     EX+EC           =    -58.308046873
Transforming the Hamiltonian                       ... done (   0.0 sec)
Diagonalizing the Hamiltonian                      ... done (   0.0 sec)
Back transforming the eigenvectors                 ... done (   0.0 sec)
Now organizing SCF variables                       ... done
                      ------------------
                      INITIAL GUESS DONE (   0.2 sec)
                      ------------------
             **** ENERGY FILE WAS UPDATED (opt.en.tmp) ****
Finished Guess after   0.7 sec
Maximum memory used throughout the entire GUESS-calculation: 16.9 MB


           ************************************************************
           *        Program running with 8 parallel MPI-processes     *
           *              working on a common directory               *
           ************************************************************

-------------------------------------------------------------------------------------------
                                      ORCA LEAN-SCF
                              memory conserving SCF solver
-------------------------------------------------------------------------------------------

----------------------------------------D-I-I-S--------------------------------------------
Iteration    Energy (Eh)           Delta-E    RMSDP     MaxDP     DIISErr   Damp  Time(sec)
-------------------------------------------------------------------------------------------
               ***  Starting incremental Fock matrix formation  ***
    1    -691.1810629832198174     0.00e+00  9.84e-04  1.68e-02  8.78e-02  0.700   1.3
    2    -691.2350109272545069    -5.39e-02  7.54e-04  1.25e-02  5.39e-02  0.700   0.9
                               ***Turning on AO-DIIS***
    3    -691.2659844525686594    -3.10e-02  4.45e-04  6.98e-03  2.96e-02  0.700   0.8
    4    -691.2854432842885899    -1.95e-02  1.09e-03  1.94e-02  1.96e-02  0.000   0.8
    5    -691.3295488061003198    -4.41e-02  2.23e-04  4.04e-03  4.90e-03  0.000   0.8
    6    -691.3300525597485375    -5.04e-04  1.39e-04  2.64e-03  3.80e-03  0.000   0.8
                              *** Initializing SOSCF ***
---------------------------------------S-O-S-C-F--------------------------------------
Iteration    Energy (Eh)           Delta-E    RMSDP     MaxDP     MaxGrad    Time(sec)
--------------------------------------------------------------------------------------
    7    -691.3302528095300659    -2.00e-04  9.34e-05  1.71e-03  1.79e-03     0.8
               *** Restarting incremental Fock matrix formation ***
    8    -691.3302986018691172    -4.58e-05  7.12e-05  1.07e-03  2.03e-03     1.3
    9    -691.3303308709147359    -3.23e-05  1.11e-04  1.46e-03  7.33e-04     1.1
   10    -691.3303523038482581    -2.14e-05  4.46e-05  8.07e-04  2.81e-04     1.1
   11    -691.3303550993882709    -2.80e-06  1.20e-05  2.40e-04  7.61e-05     1.0
   12    -691.3303553880346044    -2.89e-07  4.74e-06  7.25e-05  2.61e-05     1.0
   13    -691.3303554568210529    -6.88e-08  2.05e-06  4.17e-05  9.21e-06     0.9
   14    -691.3303554678442424    -1.10e-08  8.76e-07  1.90e-05  4.65e-06     0.9
   15    -691.3303554730899805    -5.25e-09  3.19e-07  3.54e-06  1.70e-06     0.8
                 **** Energy Check signals convergence ****

               *****************************************************
               *                     SUCCESS                       *
               *           SCF CONVERGED AFTER  15 CYCLES          *
               *****************************************************

Recomputing exchange energy using gridx3       ... done (    1.809 sec)
Old exchange energy                            :    -40.956361617 Eh
New exchange energy                            :    -40.956340824 Eh
Exchange energy change after final integration :      0.000020794 Eh
Total energy after final integration           :   -691.330334679 Eh
             **** ENERGY FILE WAS UPDATED (opt.en.tmp) ****

----------------
TOTAL SCF ENERGY
----------------

Total Energy       :       -691.33033467931216 Eh          -18812.05479 eV

Components:
Nuclear Repulsion  :        277.67173063768882 Eh            7555.83192 eV
Electronic Energy  :       -969.00208611059099 Eh          -26367.88728 eV
One Electron Energy:      -1500.16109565995430 Eh          -40821.45874 eV
Two Electron Energy:        531.15900954936330 Eh           14453.57146 eV

Virial components:
Potential Energy   :      -1381.75359485568833 Eh          -37599.42683 eV
Kinetic Energy     :        690.42326017637629 Eh           18787.37204 eV
Virial Ratio       :          2.00131379482016

DFT components:
N(Alpha)           :       28.999981616448 electrons
N(Beta)            :       27.999976658944 electrons
N(Total)           :       56.999958275392 electrons
E(X)               :      -18.308887155860 Eh       
E(C)               :       -0.928842930018 Eh       
E(XC)              :      -19.237730085878 Eh       

---------------
SCF CONVERGENCE
---------------

  Last Energy change         ...    5.2457e-09  Tolerance :   1.0000e-08
  Last MAX-Density change    ...    3.5379e-06  Tolerance :   1.0000e-07
  Last RMS-Density change    ...    3.1917e-07  Tolerance :   5.0000e-09
  Last DIIS Error            ...    1.7899e-03  Tolerance :   5.0000e-07
  Last Orbital Gradient      ...    1.6996e-06  Tolerance :   1.0000e-05
  Last Orbital Rotation      ...    7.9963e-06  Tolerance :   1.0000e-05


----------------------
UHF SPIN CONTAMINATION
----------------------

Warning: in a DFT calculation there is little theoretical justification to 
         calculate <S**2> as in Hartree-Fock theory. We will do it anyways
         but you should keep in mind that the values have only limited relevance

Expectation value of <S**2>     :     0.760157
Ideal value S*(S+1) for S=0.5   :     0.750000
Deviation                       :     0.010157

----------------
ORBITAL ENERGIES
----------------
                 SPIN UP ORBITALS
  NO   OCC          E(Eh)            E(eV) 
   0   1.0000    -103.527866     -2817.1365 
   1   1.0000     -20.052573      -545.6582 
   2   1.0000     -10.909431      -296.8607 
   3   1.0000     -10.900723      -296.6237 
   4   1.0000     -10.837388      -294.9003 
   5   1.0000     -10.830681      -294.7178 
   6   1.0000     -10.114949      -275.2418 
   7   1.0000      -7.693686      -209.3558 
   8   1.0000      -7.687075      -209.1759 
   9   1.0000      -7.687044      -209.1751 
  10   1.0000      -1.327873       -36.1333 
  11   1.0000      -0.985263       -26.8104 
  12   1.0000      -0.948098       -25.7991 
  13   1.0000      -0.936295       -25.4779 
  14   1.0000      -0.809117       -22.0172 
  15   1.0000      -0.717846       -19.5336 
  16   1.0000      -0.657121       -17.8812 
  17   1.0000      -0.594000       -16.1635 
  18   1.0000      -0.572821       -15.5873 
  19   1.0000      -0.549768       -14.9599 
  20   1.0000      -0.532474       -14.4893 
  21   1.0000      -0.526557       -14.3283 
  22   1.0000      -0.508606       -13.8399 
  23   1.0000      -0.484714       -13.1897 
  24   1.0000      -0.449782       -12.2392 
  25   1.0000      -0.417396       -11.3579 
  26   1.0000      -0.396739       -10.7958 
  27   1.0000      -0.395945       -10.7742 
  28   1.0000      -0.312705        -8.5091 
  29   0.0000       0.091131         2.4798 
  30   0.0000       0.122150         3.3239 
  31   0.0000       0.131273         3.5721 
  32   0.0000       0.146136         3.9766 
  33   0.0000       0.156027         4.2457 
  34   0.0000       0.166593         4.5332 
  35   0.0000       0.173039         4.7086 
  36   0.0000       0.181434         4.9371 
  37   0.0000       0.198399         5.3987 
  38   0.0000       0.204636         5.5684 
  39   0.0000       0.219724         5.9790 

                 SPIN DOWN ORBITALS
  NO   OCC          E(Eh)            E(eV) 
   0   1.0000    -103.525942     -2817.0841 
   1   1.0000     -20.046277      -545.4869 
   2   1.0000     -10.901081      -296.6335 
   3   1.0000     -10.891553      -296.3742 
   4   1.0000     -10.837135      -294.8934 
   5   1.0000     -10.830614      -294.7160 
   6   1.0000     -10.113142      -275.1926 
   7   1.0000      -7.686730      -209.1666 
   8   1.0000      -7.686008      -209.1469 
   9   1.0000      -7.685987      -209.1463 
  10   1.0000      -1.312178       -35.7062 
  11   1.0000      -0.970578       -26.4108 
  12   1.0000      -0.941807       -25.6279 
  13   1.0000      -0.923776       -25.1372 
  14   1.0000      -0.794812       -21.6279 
  15   1.0000      -0.699903       -19.0453 
  16   1.0000      -0.614551       -16.7228 
  17   1.0000      -0.582299       -15.8451 
  18   1.0000      -0.558993       -15.2110 
  19   1.0000      -0.543512       -14.7897 
  20   1.0000      -0.524161       -14.2631 
  21   1.0000      -0.518221       -14.1015 
  22   1.0000      -0.500625       -13.6227 
  23   1.0000      -0.477952       -13.0057 
  24   1.0000      -0.415633       -11.3099 
  25   1.0000      -0.407794       -11.0966 
  26   1.0000      -0.393469       -10.7068 
  27   1.0000      -0.392353       -10.6765 
  28   0.0000       0.001402         0.0382 
  29   0.0000       0.092853         2.5267 
  30   0.0000       0.123607         3.3635 
  31   0.0000       0.134657         3.6642 
  32   0.0000       0.149186         4.0596 
  33   0.0000       0.157033         4.2731 
  34   0.0000       0.169930         4.6240 
  35   0.0000       0.174778         4.7559 
  36   0.0000       0.191341         5.2066 
  37   0.0000       0.205424         5.5899 
  38   0.0000       0.209810         5.7092 
*Only the first 10 virtual orbitals were printed.

                    ********************************
                    * MULLIKEN POPULATION ANALYSIS *
                    ********************************

--------------------------------------------
MULLIKEN ATOMIC CHARGES AND SPIN POPULATIONS
--------------------------------------------
   0 C :    0.119648   -0.003519
   1 C :   -0.238333    0.004888
   2 C :    0.086242    0.703281
   3 H :    0.109948    0.005027
   4 O :   -0.365236    0.124219
   5 C :   -0.226687   -0.023406
   6 H :    0.225466   -0.023153
   7 H :    0.083693   -0.000977
   8 H :    0.096946    0.003846
   9 H :    0.087664   -0.000844
  10 H :    0.112378    0.004099
  11 H :    0.098749    0.002340
  12 H :    0.085971    0.055710
  13 Cl:   -0.276450    0.148488
Sum of atomic charges         :   -0.0000000
Sum of atomic spin populations:    1.0000000

-----------------------------------------------------
MULLIKEN REDUCED ORBITAL CHARGES AND SPIN POPULATIONS
-----------------------------------------------------
CHARGE
  0 C s       :     3.096516  s :     3.096516
      pz      :     0.691978  p :     2.592537
      px      :     0.941025
      py      :     0.959534
      dz2     :     0.041850  d :     0.177524
      dxz     :     0.030628
      dyz     :     0.022828
      dx2y2   :     0.035194
      dxy     :     0.047024
      f0      :     0.002196  f :     0.013775
      f+1     :     0.002094
      f-1     :     0.002277
      f+2     :     0.001849
      f-2     :     0.001814
      f+3     :     0.001558
      f-3     :     0.001987

  1 C s       :     3.157991  s :     3.157991
      pz      :     1.037184  p :     3.001165
      px      :     0.905055
      py      :     1.058925
      dz2     :     0.019853  d :     0.075434
      dxz     :     0.010979
      dyz     :     0.008824
      dx2y2   :     0.012852
      dxy     :     0.022926
      f0      :     0.000573  f :     0.003743
      f+1     :     0.000604
      f-1     :     0.000247
      f+2     :     0.000506
      f-2     :     0.000360
      f+3     :     0.000824
      f-3     :     0.000629

  2 C s       :     3.206139  s :     3.206139
      pz      :     0.745936  p :     2.522422
      px      :     0.893751
      py      :     0.882735
      dz2     :     0.038067  d :     0.168925
      dxz     :     0.024404
      dyz     :     0.041257
      dx2y2   :     0.037674
      dxy     :     0.027524
      f0      :     0.002587  f :     0.016272
      f+1     :     0.001831
      f-1     :     0.002396
      f+2     :     0.003082
      f-2     :     0.002275
      f+3     :     0.001960
      f-3     :     0.002141

  3 H s       :     0.846478  s :     0.846478
      pz      :     0.006669  p :     0.041236
      px      :     0.013098
      py      :     0.021469
      dz2     :     0.000163  d :     0.002338
      dxz     :     0.000158
      dyz     :     0.000650
      dx2y2   :     0.000826
      dxy     :     0.000541

  4 O s       :     3.858530  s :     3.858530
      pz      :     1.321766  p :     4.459557
      px      :     1.623906
      py      :     1.513884
      dz2     :     0.014356  d :     0.044897
      dxz     :     0.010970
      dyz     :     0.013703
      dx2y2   :     0.003041
      dxy     :     0.002826
      f0      :     0.000656  f :     0.002252
      f+1     :     0.000415
      f-1     :     0.000448
      f+2     :     0.000275
      f-2     :     0.000329
      f+3     :     0.000063
      f-3     :     0.000065

  5 C s       :     3.154155  s :     3.154155
      pz      :     1.059755  p :     2.991947
      px      :     1.053103
      py      :     0.879090
      dz2     :     0.014455  d :     0.076800
      dxz     :     0.013386
      dyz     :     0.015142
      dx2y2   :     0.016354
      dxy     :     0.017462
      f0      :     0.000265  f :     0.003785
      f+1     :     0.000463
      f-1     :     0.000620
      f+2     :     0.000615
      f-2     :     0.000298
      f+3     :     0.000823
      f-3     :     0.000702

  6 H s       :     0.678832  s :     0.678832
      pz      :     0.018148  p :     0.091734
      px      :     0.052635
      py      :     0.020951
      dz2     :     0.000548  d :     0.003968
      dxz     :     0.000879
      dyz     :     0.000095
      dx2y2   :     0.001355
      dxy     :     0.001091

  7 H s       :     0.876735  s :     0.876735
      pz      :     0.008984  p :     0.037610
      px      :     0.011078
      py      :     0.017548
      dz2     :     0.000178  d :     0.001962
      dxz     :     0.000131
      dyz     :     0.000518
      dx2y2   :     0.000599
      dxy     :     0.000536

  8 H s       :     0.863803  s :     0.863803
      pz      :     0.011999  p :     0.037330
      px      :     0.012066
      py      :     0.013266
      dz2     :     0.000416  d :     0.001921
      dxz     :     0.000273
      dyz     :     0.000329
      dx2y2   :     0.000528
      dxy     :     0.000374

  9 H s       :     0.872038  s :     0.872038
      pz      :     0.020476  p :     0.038369
      px      :     0.008690
      py      :     0.009204
      dz2     :     0.000559  d :     0.001929
      dxz     :     0.000696
      dyz     :     0.000575
      dx2y2   :     0.000048
      dxy     :     0.000050

 10 H s       :     0.848509  s :     0.848509
      pz      :     0.014697  p :     0.037179
      px      :     0.010270
      py      :     0.012213
      dz2     :     0.000566  d :     0.001934
      dxz     :     0.000324
      dyz     :     0.000371
      dx2y2   :     0.000407
      dxy     :     0.000267

 11 H s       :     0.860457  s :     0.860457
      pz      :     0.018015  p :     0.038836
      px      :     0.011862
      py      :     0.008959
      dz2     :     0.000568  d :     0.001958
      dxz     :     0.000458
      dyz     :     0.000573
      dx2y2   :     0.000201
      dxy     :     0.000158

 12 H s       :     0.875299  s :     0.875299
      pz      :     0.008887  p :     0.036776
      px      :     0.018889
      py      :     0.009001
      dz2     :     0.000150  d :     0.001953
      dxz     :     0.000613
      dyz     :     0.000058
      dx2y2   :     0.000518
      dxy     :     0.000613

 13 Cls       :     5.908644  s :     5.908644
      pz      :     3.964267  p :    11.334455
      px      :     3.445179
      py      :     3.925009
      dz2     :     0.006483  d :     0.030871
      dxz     :     0.002320
      dyz     :     0.000214
      dx2y2   :     0.014891
      dxy     :     0.006962
      f0      :     0.000136  f :     0.002480
      f+1     :     0.000626
      f-1     :     0.000063
      f+2     :     0.000165
      f-2     :     0.000073
      f+3     :     0.000623
      f-3     :     0.000794


SPIN
  0 C s       :    -0.000414  s :    -0.000414
      pz      :    -0.005561  p :    -0.012435
      px      :     0.000457
      py      :    -0.007331
      dz2     :    -0.000628  d :     0.008344
      dxz     :    -0.000768
      dyz     :     0.000555
      dx2y2   :     0.006568
      dxy     :     0.002616
      f0      :     0.000010  f :     0.000986
      f+1     :     0.000158
      f-1     :     0.000086
      f+2     :    -0.000037
      f-2     :     0.000038
      f+3     :     0.000124
      f-3     :     0.000606

  1 C s       :     0.000271  s :     0.000271
      pz      :    -0.000089  p :     0.003254
      px      :     0.003620
      py      :    -0.000276
      dz2     :     0.000642  d :     0.001330
      dxz     :     0.000046
      dyz     :     0.000090
      dx2y2   :    -0.000143
      dxy     :     0.000695
      f0      :     0.000000  f :     0.000033
      f+1     :     0.000018
      f-1     :    -0.000002
      f+2     :     0.000013
      f-2     :     0.000013
      f+3     :    -0.000005
      f-3     :    -0.000005

  2 C s       :     0.086501  s :     0.086501
      pz      :     0.027296  p :     0.610127
      px      :     0.536883
      py      :     0.045948
      dz2     :     0.000960  d :     0.007556
      dxz     :    -0.000960
      dyz     :    -0.000071
      dx2y2   :     0.005890
      dxy     :     0.001737
      f0      :     0.000099  f :    -0.000902
      f+1     :    -0.000078
      f-1     :     0.000050
      f+2     :    -0.000298
      f-2     :    -0.000158
      f+3     :    -0.000188
      f-3     :    -0.000329

  3 H s       :     0.004146  s :     0.004146
      pz      :     0.000061  p :     0.000874
      px      :     0.000020
      py      :     0.000793
      dz2     :     0.000002  d :     0.000008
      dxz     :    -0.000004
      dyz     :    -0.000001
      dx2y2   :     0.000001
      dxy     :     0.000010

  4 O s       :     0.009390  s :     0.009390
      pz      :     0.002342  p :     0.114245
      px      :     0.103345
      py      :     0.008559
      dz2     :     0.000175  d :     0.000544
      dxz     :    -0.000538
      dyz     :     0.000154
      dx2y2   :     0.000432
      dxy     :     0.000322
      f0      :     0.000019  f :     0.000040
      f+1     :    -0.000023
      f-1     :     0.000009
      f+2     :     0.000035
      f-2     :     0.000008
      f+3     :    -0.000001
      f-3     :    -0.000006

  5 C s       :    -0.008515  s :    -0.008515
      pz      :    -0.003516  p :    -0.028468
      px      :    -0.018797
      py      :    -0.006155
      dz2     :     0.000333  d :     0.012754
      dxz     :     0.000353
      dyz     :     0.000631
      dx2y2   :     0.001347
      dxy     :     0.010090
      f0      :     0.000010  f :     0.000823
      f+1     :     0.000036
      f-1     :     0.000046
      f+2     :     0.000040
      f-2     :     0.000125
      f+3     :     0.000476
      f-3     :     0.000089

  6 H s       :    -0.040984  s :    -0.040984
      pz      :     0.000213  p :     0.017468
      px      :     0.015905
      py      :     0.001349
      dz2     :     0.000105  d :     0.000363
      dxz     :    -0.000024
      dyz     :    -0.000003
      dx2y2   :     0.000218
      dxy     :     0.000066

  7 H s       :    -0.000975  s :    -0.000975
      pz      :    -0.000004  p :    -0.000006
      px      :     0.000043
      py      :    -0.000045
      dz2     :     0.000002  d :     0.000004
      dxz     :     0.000000
      dyz     :    -0.000000
      dx2y2   :     0.000000
      dxy     :     0.000002

  8 H s       :     0.003592  s :     0.003592
      pz      :     0.000008  p :     0.000244
      px      :     0.000241
      py      :    -0.000005
      dz2     :     0.000001  d :     0.000010
      dxz     :     0.000000
      dyz     :     0.000005
      dx2y2   :     0.000004
      dxy     :     0.000000

  9 H s       :    -0.000744  s :    -0.000744
      pz      :    -0.000048  p :    -0.000098
      px      :    -0.000033
      py      :    -0.000017
      dz2     :     0.000000  d :    -0.000002
      dxz     :    -0.000000
      dyz     :    -0.000001
      dx2y2   :     0.000000
      dxy     :    -0.000001

 10 H s       :     0.004397  s :     0.004397
      pz      :    -0.000063  p :    -0.000309
      px      :     0.000091
      py      :    -0.000337
      dz2     :    -0.000003  d :     0.000010
      dxz     :    -0.000004
      dyz     :     0.000005
      dx2y2   :    -0.000000
      dxy     :     0.000012

 11 H s       :     0.002470  s :     0.002470
      pz      :    -0.000072  p :    -0.000152
      px      :     0.000053
      py      :    -0.000133
      dz2     :     0.000004  d :     0.000023
      dxz     :    -0.000001
      dyz     :     0.000005
      dx2y2   :    -0.000001
      dxy     :     0.000016

 12 H s       :     0.055761  s :     0.055761
      pz      :     0.000071  p :    -0.000114
      px      :     0.000048
      py      :    -0.000233
      dz2     :    -0.000005  d :     0.000063
      dxz     :     0.000017
      dyz     :    -0.000005
      dx2y2   :     0.000044
      dxy     :     0.000012

 13 Cls       :     0.005576  s :     0.005576
      pz      :     0.002044  p :     0.146474
      px      :     0.132084
      py      :     0.012346
      dz2     :    -0.000881  d :    -0.003639
      dxz     :    -0.000054
      dyz     :    -0.000000
      dx2y2   :    -0.001959
      dxy     :    -0.000745
      f0      :     0.000014  f :     0.000078
      f+1     :     0.000001
      f-1     :     0.000003
      f+2     :     0.000018
      f-2     :     0.000009
      f+3     :     0.000021
      f-3     :     0.000012



                     *******************************
                     * LOEWDIN POPULATION ANALYSIS *
                     *******************************

-------------------------------------------
LOEWDIN ATOMIC CHARGES AND SPIN POPULATIONS
-------------------------------------------
   0 C :   -0.084884    0.027007
   1 C :    0.018645    0.005795
   2 C :   -0.171167    0.551142
   3 H :    0.018375   -0.000797
   4 O :    0.192270    0.133011
   5 C :    0.000351    0.053541
   6 H :   -0.243439    0.090681
   7 H :    0.017411   -0.000173
   8 H :    0.019532    0.002603
   9 H :    0.020965    0.000037
  10 H :    0.027290    0.001819
  11 H :    0.025140   -0.000599
  12 H :    0.021264    0.030576
  13 Cl:    0.138247    0.105357

----------------------------------------------------
LOEWDIN REDUCED ORBITAL CHARGES AND SPIN POPULATIONS
----------------------------------------------------
CHARGE
  0 C s       :     2.715297  s :     2.715297
      pz      :     0.717424  p :     2.703055
      px      :     0.996780
      py      :     0.988850
      dz2     :     0.130769  d :     0.587008
      dxz     :     0.102592
      dyz     :     0.087294
      dx2y2   :     0.116581
      dxy     :     0.149773
      f0      :     0.015190  f :     0.079523
      f+1     :     0.011200
      f-1     :     0.013544
      f+2     :     0.009016
      f-2     :     0.011022
      f+3     :     0.007782
      f-3     :     0.011769

  1 C s       :     2.698812  s :     2.698812
      pz      :     0.999000  p :     2.958728
      px      :     0.952795
      py      :     1.006933
      dz2     :     0.075618  d :     0.293615
      dxz     :     0.047199
      dyz     :     0.028293
      dx2y2   :     0.056461
      dxy     :     0.086045
      f0      :     0.004087  f :     0.030199
      f+1     :     0.004131
      f-1     :     0.002696
      f+2     :     0.004814
      f-2     :     0.004515
      f+3     :     0.005755
      f-3     :     0.004201

  2 C s       :     2.778509  s :     2.778509
      pz      :     0.825642  p :     2.668484
      px      :     0.846838
      py      :     0.996005
      dz2     :     0.137708  d :     0.626344
      dxz     :     0.096360
      dyz     :     0.157002
      dx2y2   :     0.128424
      dxy     :     0.106849
      f0      :     0.017091  f :     0.097830
      f+1     :     0.014958
      f-1     :     0.014408
      f+2     :     0.015195
      f-2     :     0.015524
      f+3     :     0.010541
      f-3     :     0.010112

  3 H s       :     0.808846  s :     0.808846
      pz      :     0.029134  p :     0.144120
      px      :     0.049913
      py      :     0.065074
      dz2     :     0.003003  d :     0.028660
      dxz     :     0.001738
      dyz     :     0.005613
      dx2y2   :     0.009057
      dxy     :     0.009249

  4 O s       :     3.365037  s :     3.365037
      pz      :     1.386743  p :     4.345904
      px      :     1.529702
      py      :     1.429459
      dz2     :     0.033527  d :     0.090276
      dxz     :     0.019599
      dyz     :     0.019344
      dx2y2   :     0.008825
      dxy     :     0.008981
      f0      :     0.002175  f :     0.006513
      f+1     :     0.001027
      f-1     :     0.000954
      f+2     :     0.000975
      f-2     :     0.001092
      f+3     :     0.000098
      f-3     :     0.000192

  5 C s       :     2.700469  s :     2.700469
      pz      :     1.006851  p :     2.966891
      px      :     1.005207
      py      :     0.954833
      dz2     :     0.052519  d :     0.300789
      dxz     :     0.042642
      dyz     :     0.066660
      dx2y2   :     0.077524
      dxy     :     0.061444
      f0      :     0.002576  f :     0.031501
      f+1     :     0.004637
      f-1     :     0.004960
      f+2     :     0.003705
      f-2     :     0.004228
      f+3     :     0.006151
      f-3     :     0.005245

  6 H s       :     0.793686  s :     0.793686
      pz      :     0.065204  p :     0.412503
      px      :     0.267788
      py      :     0.079510
      dz2     :     0.004228  d :     0.037250
      dxz     :     0.009690
      dyz     :     0.001028
      dx2y2   :     0.011481
      dxy     :     0.010823

  7 H s       :     0.807276  s :     0.807276
      pz      :     0.039143  p :     0.146096
      px      :     0.042853
      py      :     0.064100
      dz2     :     0.002852  d :     0.029217
      dxz     :     0.001778
      dyz     :     0.007773
      dx2y2   :     0.008529
      dxy     :     0.008285

  8 H s       :     0.804320  s :     0.804320
      pz      :     0.046405  p :     0.147231
      px      :     0.047442
      py      :     0.053384
      dz2     :     0.006030  d :     0.028917
      dxz     :     0.004298
      dyz     :     0.005074
      dx2y2   :     0.007516
      dxy     :     0.005999

  9 H s       :     0.802909  s :     0.802909
      pz      :     0.067588  p :     0.147313
      px      :     0.038017
      py      :     0.041708
      dz2     :     0.009533  d :     0.028813
      dxz     :     0.008877
      dyz     :     0.009140
      dx2y2   :     0.000676
      dxy     :     0.000587

 10 H s       :     0.797398  s :     0.797398
      pz      :     0.053920  p :     0.146281
      px      :     0.044237
      py      :     0.048123
      dz2     :     0.007863  d :     0.029032
      dxz     :     0.005316
      dyz     :     0.006273
      dx2y2   :     0.005415
      dxy     :     0.004166

 11 H s       :     0.799821  s :     0.799821
      pz      :     0.062326  p :     0.146059
      px      :     0.046669
      py      :     0.037064
      dz2     :     0.009397  d :     0.028980
      dxz     :     0.007594
      dyz     :     0.007209
      dx2y2   :     0.002757
      dxy     :     0.002023

 12 H s       :     0.802069  s :     0.802069
      pz      :     0.039390  p :     0.148071
      px      :     0.067998
      py      :     0.040684
      dz2     :     0.002452  d :     0.028596
      dxz     :     0.009211
      dyz     :     0.000732
      dx2y2   :     0.007610
      dxy     :     0.008590

 13 Cls       :     5.624468  s :     5.624468
      pz      :     3.914888  p :    11.192914
      px      :     3.401155
      py      :     3.876871
      dz2     :     0.008927  d :     0.040688
      dxz     :     0.002096
      dyz     :     0.000196
      dx2y2   :     0.020535
      dxy     :     0.008934
      f0      :     0.000154  f :     0.003684
      f+1     :     0.000999
      f-1     :     0.000091
      f+2     :     0.000187
      f-2     :     0.000083
      f+3     :     0.000920
      f-3     :     0.001250


SPIN
  0 C s       :    -0.000353  s :    -0.000353
      pz      :    -0.003277  p :    -0.006272
      px      :    -0.000859
      py      :    -0.002136
      dz2     :     0.001295  d :     0.027343
      dxz     :    -0.000806
      dyz     :     0.001712
      dx2y2   :     0.019159
      dxy     :     0.005983
      f0      :     0.000090  f :     0.006289
      f+1     :     0.001523
      f-1     :     0.000599
      f+2     :     0.000038
      f-2     :     0.000091
      f+3     :     0.000392
      f-3     :     0.003557

  1 C s       :    -0.000172  s :    -0.000172
      pz      :     0.000171  p :     0.002799
      px      :     0.002766
      py      :    -0.000138
      dz2     :     0.002200  d :     0.003067
      dxz     :     0.000131
      dyz     :     0.000178
      dx2y2   :    -0.000079
      dxy     :     0.000636
      f0      :    -0.000016  f :     0.000102
      f+1     :     0.000080
      f-1     :     0.000007
      f+2     :     0.000033
      f-2     :     0.000015
      f+3     :    -0.000013
      f-3     :    -0.000005

  2 C s       :     0.054003  s :     0.054003
      pz      :     0.020210  p :     0.478205
      px      :     0.423453
      py      :     0.034541
      dz2     :     0.000790  d :     0.017419
      dxz     :    -0.000994
      dyz     :     0.001202
      dx2y2   :     0.016902
      dxy     :    -0.000481
      f0      :     0.001396  f :     0.001516
      f+1     :    -0.000308
      f-1     :     0.000788
      f+2     :     0.000178
      f-2     :     0.000013
      f+3     :    -0.000257
      f-3     :    -0.000294

  3 H s       :     0.001474  s :     0.001474
      pz      :    -0.000498  p :    -0.001974
      px      :    -0.000451
      py      :    -0.001025
      dz2     :    -0.000021  d :    -0.000297
      dxz     :    -0.000027
      dyz     :    -0.000083
      dx2y2   :    -0.000131
      dxy     :    -0.000036

  4 O s       :     0.005034  s :     0.005034
      pz      :     0.004985  p :     0.114857
      px      :     0.101400
      py      :     0.008472
      dz2     :     0.002622  d :     0.012122
      dxz     :     0.003677
      dyz     :     0.001311
      dx2y2   :     0.003307
      dxy     :     0.001206
      f0      :     0.000304  f :     0.000998
      f+1     :     0.000031
      f-1     :     0.000128
      f+2     :     0.000361
      f-2     :     0.000070
      f+3     :     0.000028
      f-3     :     0.000077

  5 C s       :     0.002051  s :     0.002051
      pz      :     0.000257  p :    -0.001667
      px      :    -0.005123
      py      :     0.003199
      dz2     :     0.003439  d :     0.047994
      dxz     :     0.002515
      dyz     :     0.002763
      dx2y2   :     0.004220
      dxy     :     0.035057
      f0      :     0.000108  f :     0.005164
      f+1     :     0.000097
      f-1     :     0.000229
      f+2     :     0.000145
      f-2     :     0.000699
      f+3     :     0.003588
      f-3     :     0.000298

  6 H s       :    -0.015206  s :    -0.015206
      pz      :     0.001653  p :     0.103612
      px      :     0.093631
      py      :     0.008328
      dz2     :     0.000456  d :     0.002274
      dxz     :     0.000176
      dyz     :     0.000018
      dx2y2   :     0.001126
      dxy     :     0.000498

  7 H s       :    -0.000194  s :    -0.000194
      pz      :    -0.000022  p :     0.000000
      px      :     0.000006
      py      :     0.000016
      dz2     :     0.000002  d :     0.000020
      dxz     :     0.000002
      dyz     :    -0.000012
      dx2y2   :     0.000003
      dxy     :     0.000025

  8 H s       :     0.002209  s :     0.002209
      pz      :     0.000029  p :     0.000365
      px      :     0.000384
      py      :    -0.000048
      dz2     :    -0.000010  d :     0.000028
      dxz     :    -0.000003
      dyz     :     0.000023
      dx2y2   :     0.000026
      dxy     :    -0.000009

  9 H s       :     0.000115  s :     0.000115
      pz      :    -0.000046  p :    -0.000111
      px      :    -0.000014
      py      :    -0.000050
      dz2     :     0.000009  d :     0.000033
      dxz     :     0.000028
      dyz     :    -0.000001
      dx2y2   :    -0.000000
      dxy     :    -0.000003

 10 H s       :     0.003229  s :     0.003229
      pz      :    -0.000173  p :    -0.001390
      px      :    -0.000398
      py      :    -0.000820
      dz2     :    -0.000098  d :    -0.000020
      dxz     :     0.000003
      dyz     :     0.000069
      dx2y2   :    -0.000005
      dxy     :     0.000011

 11 H s       :     0.001030  s :     0.001030
      pz      :    -0.000134  p :    -0.001593
      px      :    -0.000536
      py      :    -0.000923
      dz2     :     0.000061  d :    -0.000036
      dxz     :    -0.000043
      dyz     :    -0.000109
      dx2y2   :    -0.000026
      dxy     :     0.000081

 12 H s       :     0.027221  s :     0.027221
      pz      :     0.000160  p :     0.003250
      px      :    -0.000034
      py      :     0.003123
      dz2     :    -0.000038  d :     0.000105
      dxz     :    -0.000005
      dyz     :     0.000013
      dx2y2   :     0.000054
      dxy     :     0.000083

 13 Cls       :    -0.000167  s :    -0.000167
      pz      :     0.001173  p :     0.107808
      px      :     0.097618
      py      :     0.009017
      dz2     :    -0.000550  d :    -0.002189
      dxz     :    -0.000118
      dyz     :    -0.000000
      dx2y2   :    -0.001117
      dxy     :    -0.000404
      f0      :    -0.000012  f :    -0.000094
      f+1     :    -0.000014
      f-1     :    -0.000003
      f+2     :    -0.000017
      f-2     :    -0.000007
      f+3     :    -0.000022
      f-3     :    -0.000020



                      *****************************
                      * MAYER POPULATION ANALYSIS *
                      *****************************

  NA   - Mulliken gross atomic population
  ZA   - Total nuclear charge
  QA   - Mulliken gross atomic charge
  VA   - Mayer's total valence
  BVA  - Mayer's bonded valence
  FA   - Mayer's free valence

  ATOM       NA         ZA         QA         VA         BVA        FA
  0 C      5.8804     6.0000     0.1196     3.8550     3.8537     0.0013
  1 C      6.2383     6.0000    -0.2383     3.9521     3.9520     0.0001
  2 C      5.9138     6.0000     0.0862     3.8781     3.3771     0.5010
  3 H      0.8901     1.0000     0.1099     1.0061     1.0061     0.0000
  4 O      8.3652     8.0000    -0.3652     2.0372     2.0164     0.0208
  5 C      6.2267     6.0000    -0.2267     3.9442     3.9418     0.0023
  6 H      0.7745     1.0000     0.2255     1.0780     1.0738     0.0042
  7 H      0.9163     1.0000     0.0837     1.0087     1.0087     0.0000
  8 H      0.9031     1.0000     0.0969     1.0029     1.0029     0.0000
  9 H      0.9123     1.0000     0.0877     1.0074     1.0074     0.0000
 10 H      0.8876     1.0000     0.1124     1.0007     1.0007     0.0000
 11 H      0.9013     1.0000     0.0987     1.0112     1.0112     0.0000
 12 H      0.9140     1.0000     0.0860     1.0034     0.9999     0.0034
 13 Cl    17.2765    17.0000    -0.2765     0.9958     0.9714     0.0244

  Mayer bond orders larger than 0.100000
B(  0-C ,  1-C ) :   0.9525 B(  0-C ,  2-C ) :   1.0601 B(  0-C ,  3-H ) :   0.9816 
B(  0-C ,  4-O ) :   0.8574 B(  1-C ,  7-H ) :   0.9999 B(  1-C ,  8-H ) :   0.9927 
[...]
      2       0.000261   0.000029  -0.001354   0.000266  -0.000272   0.001043
      3      -0.042914  -0.000647   0.032535  -0.017140   0.001211  -0.008650
      4      -0.013897   0.002971   0.026948   0.068252  -0.003923   0.054370
      5      -0.023053   0.002505  -0.081735   0.016935  -0.002049   0.010875
      6      -0.000147   0.001491  -0.000296   0.000354   0.000179  -0.001048
      7       0.000342  -0.000533  -0.000333   0.000874  -0.000873  -0.001504
      8      -0.000021   0.000156  -0.000353  -0.000857  -0.001220   0.001127
      9       0.006950  -0.003135  -0.015250  -0.310575   0.004516   0.402365
     10      -0.017319   0.005265   0.029013   0.528032  -0.006875  -0.677377
     11      -0.002401   0.000162   0.002876   0.011283   0.000163  -0.012440
     12       0.000086  -0.000265   0.000069  -0.000633  -0.000145   0.000864
     13       0.000099  -0.000043   0.000197  -0.000239  -0.000410  -0.000004
     14       0.000017   0.000180   0.000637   0.000176   0.000701  -0.000662
     15      -0.000405   0.079030   0.001292  -0.002521   0.011248  -0.001636
     16       0.001930   0.031139   0.000835  -0.001316  -0.022856  -0.000938
     17      -0.000089   0.002881   0.001246  -0.004031  -0.088854  -0.002359
     18       0.002544   0.000973   0.000425   0.002431   0.000052  -0.004243
     19      -0.000667   0.000745  -0.000042  -0.001200   0.000311   0.001931
     20      -0.000660  -0.000301  -0.000080  -0.000346  -0.000346   0.000767
     21       0.189435   0.011276   0.009210   0.305965  -0.017447   0.236261
     22      -0.408786  -0.023623   0.001183  -0.632562   0.036626  -0.481206
     23      -0.046824  -0.001999  -0.018976  -0.066594   0.003478  -0.049885
     24       0.326243  -0.004481  -0.396087  -0.122078   0.004054  -0.121380
     25       0.416511  -0.004404  -0.501204  -0.136336   0.004493  -0.135212
     26      -0.305907   0.004226   0.342624   0.113778  -0.004327   0.106055
     27      -0.018388   0.000653  -0.005727   0.005701  -0.000360  -0.001254
     28       0.156663  -0.007397   0.177611  -0.052814   0.006165  -0.037292
     29       0.626009  -0.032123   0.657639  -0.256951   0.026089  -0.186856
     30      -0.010320  -0.264283  -0.007748   0.018729   0.269706   0.009800
     31      -0.015071  -0.411956  -0.011880   0.027872   0.385922   0.013800
     32      -0.016761  -0.480511  -0.013549   0.031247   0.433183   0.017112
     33      -0.008406  -0.251398   0.000450  -0.009375  -0.368367  -0.004363
     34      -0.002190  -0.070457  -0.000008  -0.003345  -0.109160  -0.001293
     35       0.015095   0.493719   0.000221   0.015986   0.655802   0.007523
     36       0.025540  -0.437264  -0.007481   0.024973  -0.036110   0.011350
     37      -0.006277   0.120930   0.000836  -0.008207   0.003948  -0.002803
     38       0.003076  -0.051893  -0.000499   0.002691  -0.024495   0.001401
     39      -0.000111  -0.000047  -0.000036  -0.000100  -0.000030   0.000201
     40       0.000037  -0.000017  -0.000016  -0.000003   0.000027  -0.000059
     41       0.000029  -0.000014  -0.000027  -0.000017   0.000008  -0.000014


-----------
IR SPECTRUM
-----------

 Mode   freq       eps      Int      T**2         TX        TY        TZ
       cm**-1   L/(mol*cm) km/mol    a.u.
----------------------------------------------------------------------------
  7:     28.70   0.000270    1.37  0.002940  ( 0.049163 -0.016250  0.016076)
  8:     62.54   0.000749    3.78  0.003737  (-0.060858  0.000215  0.005791)
  9:    154.95   0.000122    0.62  0.000246  ( 0.006652  0.000356 -0.014202)
 10:    203.04   0.000325    1.64  0.000499  (-0.020523  0.001262 -0.008746)
 11:    210.89   0.000098    0.50  0.000145  (-0.009828 -0.002999  0.006308)
 12:    346.52   0.001764    8.91  0.001589  (-0.035510 -0.018100  0.000045)
 13:    408.20   0.001215    6.14  0.000929  (-0.004704  0.009950 -0.028418)
 14:    504.30   0.001223    6.18  0.000757  ( 0.023182  0.006520 -0.013303)
 15:    540.07   0.002978   15.05  0.001721  (-0.030115 -0.014183 -0.024755)
 16:    586.89   0.001995   10.08  0.001061  (-0.002261  0.027882 -0.016687)
 17:    693.92   0.003787   19.14  0.001703  ( 0.007887  0.032344  0.024389)
 18:    812.75   0.002621   13.25  0.001006  (-0.028281 -0.009970  0.010355)
 19:    939.55   0.002846   14.38  0.000945  (-0.004879 -0.002510  0.030249)
 20:   1003.60   0.002897   14.64  0.000901  ( 0.008485  0.016694 -0.023451)
 21:   1036.98   0.004205   21.25  0.001265  (-0.026039 -0.023534 -0.005783)
 22:   1070.95   0.001790    9.04  0.000522  (-0.020747 -0.005251 -0.007970)
 23:   1131.99   0.000298    1.51  0.000082  ( 0.004349 -0.003066  0.007344)
 24:   1141.95   0.002680   13.55  0.000732  ( 0.008781 -0.010477 -0.023359)
 25:   1213.00   0.004561   23.05  0.001173  (-0.022681 -0.005502  0.025075)
 26:   1363.03   0.002279   11.52  0.000522  (-0.020007 -0.009371  0.005796)
 27:   1407.68   0.001663    8.40  0.000369  ( 0.011461  0.015173 -0.002665)
 28:   1421.35   0.001395    7.05  0.000306  ( 0.016638 -0.002593  0.004779)
 29:   1482.25   0.000711    3.59  0.000150  (-0.009701  0.004960  0.005570)
 30:   1483.47   0.001325    6.69  0.000279  ( 0.010478  0.011536  0.005981)
 31:   1488.77   0.000162    0.82  0.000034  (-0.002444 -0.001532  0.005062)
 32:   1508.65   0.002511   12.69  0.000519  ( 0.008841 -0.004777 -0.020457)
 33:   1552.32   0.003896   19.69  0.000783  ( 0.007769 -0.012516  0.023794)
 34:   2404.17   0.239849  1212.10  0.031133  (-0.172117  0.036549  0.013138)
 35:   3029.25   0.002542   12.85  0.000262  ( 0.008850 -0.013043  0.003665)
 36:   3056.45   0.002463   12.45  0.000251  (-0.013092 -0.004830 -0.007530)
 37:   3113.44   0.002036   10.29  0.000204  ( 0.012891  0.006153 -0.000067)
 38:   3123.01   0.002213   11.18  0.000221  ( 0.007302  0.004943 -0.011972)
 39:   3142.44   0.000114    0.57  0.000011  ( 0.000620  0.003242 -0.000618)
 40:   3147.47   0.001178    5.95  0.000117  ( 0.001544 -0.003357 -0.010155)
 41:   3159.93   0.004372   22.09  0.000432  (-0.005560  0.019750  0.003285)

* The epsilon (eps) is given for a Dirac delta lineshape.
** The dipole moment derivative (T) already includes vibrational overlap.

The first frequency considered to be a vibration is 7
The total number of vibrations considered is 35


--------------------------
THERMOCHEMISTRY AT 298.15K
--------------------------

Temperature         ...   298.15 K
Pressure            ...     1.00 atm
Total Mass          ...   107.56 AMU
Quasi RRHO          ...     True
Cut-Off Frequency   ...     1.00 cm^-1

Throughout the following assumptions are being made:
  (1) The electronic state is orbitally nondegenerate
      but the spin degeneracy is treated
  (2) There are no thermally accessible electronically excited states
  (3) Hindered rotations indicated by low frequency modes are not
      treated as such but are treated as vibrations and this may
      cause some error
  (4) All equations used are the standard statistical mechanics
      equations for an ideal gas
  (5) All vibrations are strictly harmonic

freq.      28.70  E(vib)   ...       0.55 
freq.      62.54  E(vib)   ...       0.51 
freq.     154.95  E(vib)   ...       0.40 
freq.     203.04  E(vib)   ...       0.35 
freq.     210.89  E(vib)   ...       0.34 
freq.     346.52  E(vib)   ...       0.23 
freq.     408.20  E(vib)   ...       0.19 
freq.     504.30  E(vib)   ...       0.14 
freq.     540.07  E(vib)   ...       0.12 
freq.     586.89  E(vib)   ...       0.11 
freq.     693.92  E(vib)   ...       0.07 
freq.     812.75  E(vib)   ...       0.05 
freq.     939.55  E(vib)   ...       0.03 
freq.    1003.60  E(vib)   ...       0.02 
freq.    1036.98  E(vib)   ...       0.02 
freq.    1070.95  E(vib)   ...       0.02 
freq.    1131.99  E(vib)   ...       0.01 
freq.    1141.95  E(vib)   ...       0.01 
freq.    1213.00  E(vib)   ...       0.01 
freq.    1363.03  E(vib)   ...       0.01 
freq.    1407.68  E(vib)   ...       0.00 
freq.    1421.35  E(vib)   ...       0.00 
freq.    1482.25  E(vib)   ...       0.00 
freq.    1483.47  E(vib)   ...       0.00 
freq.    1488.77  E(vib)   ...       0.00 
freq.    1508.65  E(vib)   ...       0.00 
freq.    1552.32  E(vib)   ...       0.00 
freq.    2404.17  E(vib)   ...       0.00 
freq.    3029.25  E(vib)   ...       0.00 
freq.    3056.45  E(vib)   ...       0.00 
freq.    3113.44  E(vib)   ...       0.00 
freq.    3123.01  E(vib)   ...       0.00 
freq.    3142.44  E(vib)   ...       0.00 
freq.    3147.47  E(vib)   ...       0.00 
freq.    3159.93  E(vib)   ...       0.00 

------------
INNER ENERGY
------------

The inner energy is: U= E(el) + E(ZPE) + E(vib) + E(rot) + E(trans)
    E(el)   - is the total energy from the electronic structure calculation
              = E(kin-el) + E(nuc-el) + E(el-el) + E(nuc-nuc)
    E(ZPE)  - the the zero temperature vibrational energy from the frequency calculation
    E(vib)  - the the finite temperature correction to E(ZPE) due to population
              of excited vibrational states
    E(rot)  - is the rotational thermal energy
    E(trans)- is the translational thermal energy

Summary of contributions to the inner energy U:
Electronic energy                ...   -691.91549726 Eh
Zero point energy                ...      0.10929383 Eh      68.58 kcal/mol
Thermal vibrational correction   ...      0.00511382 Eh       3.21 kcal/mol
Thermal rotational correction    ...      0.00141627 Eh       0.89 kcal/mol
Thermal translational correction ...      0.00141627 Eh       0.89 kcal/mol
-----------------------------------------------------------------------
Total thermal energy                   -691.79825707 Eh


Summary of corrections to the electronic energy:
(perhaps to be used in another calculation)
Total thermal correction                  0.00794636 Eh       4.99 kcal/mol
Non-thermal (ZPE) correction              0.10929383 Eh      68.58 kcal/mol
-----------------------------------------------------------------------
Total correction                          0.11724019 Eh      73.57 kcal/mol


--------
ENTHALPY
--------

The enthalpy is H = U + kB*T
                kB is Boltzmann's constant
Total thermal energy              ...   -691.79825707 Eh 
Thermal Enthalpy correction       ...      0.00094421 Eh       0.59 kcal/mol
-----------------------------------------------------------------------
Total Enthalpy                    ...   -691.79731286 Eh


Note: Only C1 symmetry has been detected, increase convergence thresholds 
      if your molecule has a higher symmetry. Symmetry factor of 1.0 is   
      used for the rotational entropy correction. 
 

Note: Rotational entropy computed according to Herzberg 
Infrared and Raman Spectra, Chapter V,1, Van Nostrand Reinhold, 1945 
Point Group:  C1, Symmetry Number:   1  
Rotational constants in cm-1:     0.138930     0.038746     0.034778 

Vibrational entropy computed according to the QRRHO of S. Grimme
Chem.Eur.J. 2012 18 9955 using a reference frequency of 100.0 cm-1


-------
ENTROPY
-------

The entropy contributions are T*S = T*(S(el)+S(vib)+S(rot)+S(trans))
     S(el)   - electronic entropy
     S(vib)  - vibrational entropy
     S(rot)  - rotational entropy
     S(trans)- translational entropy
The entropies will be listed as multiplied by the temperature to get
units of energy

Electronic entropy                ...      0.00065446 Eh      0.41 kcal/mol
Vibrational entropy               ...      0.00914051 Eh      5.74 kcal/mol
Rotational entropy                ...      0.01356290 Eh      8.51 kcal/mol
Translational entropy             ...      0.01897446 Eh     11.91 kcal/mol
-----------------------------------------------------------------------
Final entropy term                ...      0.04233233 Eh     26.56 kcal/mol

In case the symmetry of your molecule has not been determined correctly
or in case you have a reason to use a different symmetry number we print 
out the resulting rotational entropy values for sn=1,12:

 non-linear molecules -----------------------------------
|  sn= 1 | S(rot)=       0.01356290 Eh      8.51 kcal/mol|
|  sn= 2 | S(rot)=       0.01290845 Eh      8.10 kcal/mol|
|  sn= 3 | S(rot)=       0.01252562 Eh      7.86 kcal/mol|
|  sn= 4 | S(rot)=       0.01225399 Eh      7.69 kcal/mol|
|  sn= 5 | S(rot)=       0.01204330 Eh      7.56 kcal/mol|
|  sn= 6 | S(rot)=       0.01187116 Eh      7.45 kcal/mol|
|  sn= 7 | S(rot)=       0.01172561 Eh      7.36 kcal/mol|
|  sn= 8 | S(rot)=       0.01159953 Eh      7.28 kcal/mol|
|  sn= 9 | S(rot)=       0.01148833 Eh      7.21 kcal/mol|
|  sn=10 | S(rot)=       0.01138885 Eh      7.15 kcal/mol|
|  sn=11 | S(rot)=       0.01129886 Eh      7.09 kcal/mol|
|  sn=12 | S(rot)=       0.01121670 Eh      7.04 kcal/mol|
 linear molecules ---------------------------------------
|  Dinfh | S(rot)=       0.00849711 Eh      5.33 kcal/mol|
|  Cinfv | S(rot)=       0.00915156 Eh      5.74 kcal/mol|
 --------------------------------------------------------


-------------------
GIBBS FREE ENERGY
-------------------

The Gibbs free energy is G = H - T*S

Total enthalpy                    ...   -691.79731286 Eh 
Total entropy correction          ...     -0.04233233 Eh    -26.56 kcal/mol
-----------------------------------------------------------------------
Final Gibbs free energy         ...   -691.83964519 Eh

For completeness - the Gibbs free energy minus the electronic energy
G-E(el)                           ...      0.07585207 Eh     47.60 kcal/mol



--------------------------------
SUGGESTED CITATIONS FOR THIS RUN
--------------------------------

Below you find a list of papers that are relevant to this ORCA run
We neither can nor want to force you to cite these papers, but we appreciate if you do
You receive ORCA, which is the product of decades of hard work by many enthusiastic individuals, for free
The only thing we kindly ask in return is that you cite our papers,
We deeply appreciate it, if you show your appreciation for ORCA by not just citing the generic ORCA reference.

Please note that relegating all ORCA citations to the supporting information does *not* help us.
SI sections are not indexed - citations you put there will not count into any citation statistics
But we need these citations in order to attract the funding resources that allow us to do what we are doing

Therefore, if you are a happy ORCA user, please consider citing a few of the papers listed below in the main body of your paper

In addition to the list printed below, the program has created the file opt.bibtex that contains the list in bibtex format
You can import this file easily into all common literature databanks and citation aid programs


List of essential papers. We consider these as the minimum necessary citations

  1. Neese, F.
     Software update: the ORCA program system, version 6.0
     WIRES Comput. Molec. Sci. 2025 15(1), e70019
     doi.org/10.1002/wcms.7019

List of papers to cite with high priority. The work reported in these papers was absolutely
necessary for this run to complete.
Our perspective: the developers of density functionals and basis sets usually get cited in chemistry papers
Good! But without the algorithms to do something with them, the functionals or basis sets would not do anything.
Hence, in our opinion, the algorithm design and method developments papers are equally worthy of getting cited

  1. Neese, F.
     An improvement of the resolution of the identity approximation for the formation of the Coulomb matrix
     J. Comp. Chem. 2003 24(14), 1740-1747
     doi.org/10.1002/jcc.10318
  2. Neese, F.; Schwabe, T.; Grimme, S.
     Analytic derivatives for perturbatively corrected 'double hybrid' density functionals: Theory, implementation, and applications
     J. Chem. Phys. 2007 126(12), Art. No. 124115
     doi.org/10.1063/1.2712433
  3. Neese, F.; Wennmohs, F.; Hansen, A.; Becker, U.
     Efficient, approximate and parallel Hartree-Fock and hybrid DFT calculations. A 'chain-of-spheres' algorithm for the Hartree-Fock exchange
     Chem. Phys. 2009 356(1-3), 98-109
     doi.org/10.1016/j.chemphys.2008.10.036
  4. Kossmann, S.; Neese, F.
     Efficient Structure Optimization with Second-Order Many-Body Perturbation Theory: The RIJCOSX-MP2 Method
     J. Theo. Comp. Chem. 2010 6 , 2325-2338
     doi.org/10.1021/ct100199k
  5. Caldeweyher, E.; Bannwarth, C.; Grimme, S.
     Extension of the D3 dispersion coefficient model
     J. Chem. Phys. 2017 147 , 034112
     doi.org/10.1063/1.4993215
  6. Caldeweyher, E.; Ehlert, S.; Hansen, A.; Neugebauer, H.; Spicher, S.; Bannwarth, C.; Grimme, S.
     A generally applicable atomic-charge dependent London dispersion correction
     J. Chem. Phys. 2019 150 , 154122
     doi.org/10.1063/1.5090222
  7. Caldeweyher, E.; Mewes, J.; Ehlert, S.; Grimme, S.
     Extension and evaluation of the D4 London-dispersion model for periodic systems
     Phys. Chem. Chem. Phys. 2020 22(16), 8499-8512
     doi.org/10.1039/D0CP00502A
  8. Helmich-Paris, B.; de Souza, B.; Neese, F.; Izsák, R.
     An improved chain of spheres for exchange algorithm
     J. Chem. Phys. 2021 155(10), 104109
     doi.org/10.1063/5.0058766
  9. Neese, F.
     The SHARK Integral Generation and Digestion System
     J. Comp. Chem. 2022 44(3), 381
     doi.org/10.1002/jcc.26942
 10. Wittmann, L.; Gordiy, I.; Friede, M.; Helmich-Paris, B.; Grimme, S.; Hansen, A.; Bursch, M.
     Extension of the D3 and D4 London Dispersion Corrections to the full Actinides Series
     Phys. Chem. Chem. Phys. 2024 26(32), 21379-21394
     doi.org/10.1039/D4CP01514B

List of suggested additional citations. These are papers that are important in the 'surrounding' of 
of this run, or papers that preceded the highly important papers. If you like your results we are grateful for a citation.

  1. Izsak, R.; Neese, F.
     An overlap fitted chain of spheres exchange method
     J. Chem. Phys. 2011 135 , 144105
     doi.org/10.1063/1.3646921
  2. Izsak, R.; Hansen, A.; Neese, F.
     The resolution of identity and chain of spheres approximations for the LPNO-CCSD singles Fock term
     Molec. Phys. 2012 110 , 2413-2417
     doi.org/10.1080/00268976.2012.687466
  3. Neese, F.
     The ORCA program system
     WIRES Comput. Molec. Sci. 2012 2(1), 73-78
     doi.org/10.1002/wcms.81
  4. Izsak, R.; Neese, F.; Klopper, W.
     Robust fitting techniques in the chain of spheres approximation to the Fock exchange: The role of the complementary space
     J. Chem. Phys. 2013 139 , 
     doi.org/10.1063/1.4819264
  5. Neese, F.
     Software update: the ORCA program system, version 4.0
     WIRES Comput. Molec. Sci. 2018 8(1), 1-6
     doi.org/10.1002/wcms.1327
  6. Neese, F.; Wennmohs, F.; Becker, U.; Riplinger, C.
     The ORCA quantum chemistry program package
     J. Chem. Phys. 2020 152(22), 224108
     doi.org/10.1063/5.0004608
  7. Neese, F.
     Software update: The ORCA program system—Version 5.0
     WIRES Comput. Molec. Sci. 2022 12(1), e1606
     doi.org/10.1002/wcms.1606

List of optional additional citations

  1. Neese, F.
     Approximate second-order SCF convergence for spin unrestricted wavefunctions
     Chem. Phys. Lett. 2000 325(1-3), 93-98
     doi.org/10.1016/s0009-2614(00)00662-x

Timings for individual modules:

Sum of individual times          ...     2095.207 sec (=  34.920 min)
Startup calculation              ...       20.368 sec (=   0.339 min)   1.0 %
SCF iterations                   ...      122.691 sec (=   2.045 min)   5.9 %
Property calculations            ...        2.006 sec (=   0.033 min)   0.1 %
MP2 module                       ...      192.353 sec (=   3.206 min)   9.2 %
Geometry relaxation              ...        0.053 sec (=   0.001 min)   0.0 %
Numerical frequency calculation  ...     1757.736 sec (=  29.296 min)  83.9 %
                             ****ORCA TERMINATED NORMALLY****
TOTAL RUN TIME: 0 days 0 hours 34 minutes 36 seconds 726 msec
