14
* (null), Energy   -1000.0000000
C    -1.146588   -0.767105   -0.033116   -0.365254   -0.103552    0.160470
C    -2.545356   -0.789823   -0.571935   -0.277620    0.206182   -0.086966
C    -0.373943    0.446342    0.148340   -0.078526   -0.275830    0.139490
H    -0.600378   -1.704838   -0.064614   -0.621794   -0.259746    0.405862
O    -0.974179   -0.064144    1.262994   -0.424178    0.019662    0.091776
C    -0.490546    1.862543   -0.283450    0.254958   -0.299150   -0.027792
H     1.443266   -0.031956    0.043306    0.290114   -0.283374    0.164072
H    -3.022280    0.184246   -0.467467    0.067906    0.426422   -0.574838
H    -3.146238   -1.532028   -0.043374   -0.655408    0.651978    0.110674
H    -2.527379   -1.060452   -1.630100   -0.193954   -0.232168    0.027334
H    -0.048712    2.517951    0.468004    0.162404   -0.302558    0.029074
H     0.029927    2.012605   -1.229110    0.505290   -0.449186    0.086616
H    -1.541813    2.145140   -0.409794    0.325318   -0.162118   -0.303510
Cl    2.693392   -0.401026   -0.128162    0.352860    0.168518   -0.102604
14
* Frequency(6)  -29.2100
C    -1.188097   -0.778873   -0.014879   -0.365254   -0.103552    0.160470
C    -2.576906   -0.766391   -0.581818   -0.277620    0.206182   -0.086966
C    -0.382867    0.414995    0.164192   -0.078526   -0.275830    0.139490
H    -0.671042   -1.734357   -0.018490   -0.621794   -0.259746    0.405862
O    -1.022385   -0.061910    1.273424   -0.424178    0.019662    0.091776
C    -0.461571    1.828546   -0.286608    0.254958   -0.299150   -0.027792
H     1.476236   -0.064160    0.061952    0.290114   -0.283374    0.164072
H    -3.014563    0.232707   -0.532794    0.067906    0.426422   -0.574838
H    -3.220722   -1.457934   -0.030796   -0.655408    0.651978    0.110674
H    -2.549421   -1.086837   -1.626994   -0.193954   -0.232168    0.027334
H    -0.030256    2.483567    0.471308    0.162404   -0.302558    0.029074
H     0.087351    1.961557   -1.219267    0.505290   -0.449186    0.086616
H    -1.504842    2.126716   -0.444286    0.325318   -0.162118   -0.303510
Cl    2.733493   -0.381875   -0.139822    0.352860    0.168518   -0.102604
14
* Frequency(6)  -29.2100
C    -1.225108   -0.789366    0.001381   -0.365254   -0.103552    0.160470
C    -2.605037   -0.745499   -0.590630   -0.277620    0.206182   -0.086966
C    -0.390824    0.387046    0.178327   -0.078526   -0.275830    0.139490
H    -0.734048   -1.760677    0.022636   -0.621794   -0.259746    0.405862
O    -1.065366   -0.059917    1.282723   -0.424178    0.019662    0.091776
C    -0.435737    1.798233   -0.289425    0.254958   -0.299150   -0.027792
H     1.505633   -0.092874    0.078577    0.290114   -0.283374    0.164072
H    -3.007682    0.275916   -0.591042    0.067906    0.426422   -0.574838
H    -3.287134   -1.391869   -0.019582   -0.655408    0.651978    0.110674
H    -2.569074   -1.110362   -1.624224   -0.193954   -0.232168    0.027334
H    -0.013799    2.452909    0.474254    0.162404   -0.302558    0.029074
H     0.138551    1.916041   -1.210490    0.505290   -0.449186    0.086616
H    -1.471878    2.110289   -0.475041    0.325318   -0.162118   -0.303510
Cl    2.769248   -0.364799   -0.150219    0.352860    0.168518   -0.102604
14
* Frequency(6)  -29.2100
C    -1.253610   -0.797447    0.013903   -0.365254   -0.103552    0.160470
C    -2.626701   -0.729410   -0.597417   -0.277620    0.206182   -0.086966
C    -0.396952    0.365522    0.189212   -0.078526   -0.275830    0.139490
H    -0.782569   -1.780946    0.054307   -0.621794   -0.259746    0.405862
O    -1.098467   -0.058383    1.289885   -0.424178    0.019662    0.091776
C    -0.415841    1.774890   -0.291593    0.254958   -0.299150   -0.027792
H     1.528272   -0.114987    0.091380    0.290114   -0.283374    0.164072
H    -3.002383    0.309191   -0.635899    0.067906    0.426422   -0.574838
H    -3.338278   -1.340993   -0.010946   -0.655408    0.651978    0.110674
H    -2.584209   -1.128479   -1.622091   -0.193954   -0.232168    0.027334
H    -0.001126    2.429299    0.476523    0.162404   -0.302558    0.029074
H     0.177981    1.880990   -1.203731    0.505290   -0.449186    0.086616
H    -1.446492    2.097638   -0.498725    0.325318   -0.162118   -0.303510
Cl    2.796783   -0.351649   -0.158226    0.352860    0.168518   -0.102604
14
* Frequency(6)  -29.2100
C    -1.270515   -0.802239    0.021330   -0.365254   -0.103552    0.160470
C    -2.639550   -0.719867   -0.601442   -0.277620    0.206182   -0.086966
C    -0.400586    0.352756    0.195668   -0.078526   -0.275830    0.139490
H    -0.811347   -1.792967    0.073091   -0.621794   -0.259746    0.405862
O    -1.118098   -0.057473    1.294133   -0.424178    0.019662    0.091776
C    -0.404041    1.761044   -0.292880    0.254958   -0.299150   -0.027792
H     1.541699   -0.128102    0.098974    0.290114   -0.283374    0.164072
H    -2.999240    0.328927   -0.662504    0.067906    0.426422   -0.574838
H    -3.368611   -1.310818   -0.005823   -0.655408    0.651978    0.110674
H    -2.593186   -1.139224   -1.620826   -0.193954   -0.232168    0.027334
H     0.006390    2.415296    0.477869    0.162404   -0.302558    0.029074
H     0.201367    1.860201   -1.199722    0.505290   -0.449186    0.086616
H    -1.431436    2.090135   -0.512772    0.325318   -0.162118   -0.303510
Cl    2.813114   -0.343850   -0.162975    0.352860    0.168518   -0.102604
14
* Frequency(6)  -29.2100
C    -1.273990   -0.803224    0.022857   -0.365254   -0.103552    0.160470
C    -2.642191   -0.717906   -0.602269   -0.277620    0.206182   -0.086966
C    -0.401333    0.350131    0.196995   -0.078526   -0.275830    0.139490
H    -0.817263   -1.795439    0.076953   -0.621794   -0.259746    0.405862
O    -1.122134   -0.057286    1.295006   -0.424178    0.019662    0.091776
C    -0.401615    1.758198   -0.293144    0.254958   -0.299150   -0.027792
H     1.544459   -0.130798    0.100535    0.290114   -0.283374    0.164072
H    -2.998594    0.332984   -0.667973    0.067906    0.426422   -0.574838
H    -3.374847   -1.304615   -0.004770   -0.655408    0.651978    0.110674
H    -2.595031   -1.141433   -1.620566   -0.193954   -0.232168    0.027334
H     0.007935    2.412417    0.478145    0.162404   -0.302558    0.029074
H     0.206174    1.855927   -1.198898    0.505290   -0.449186    0.086616
H    -1.428341    2.088593   -0.515660    0.325318   -0.162118   -0.303510
Cl    2.816471   -0.342246   -0.163951    0.352860    0.168518   -0.102604
14
* Frequency(6)  -29.2100
C    -1.263659   -0.800296    0.018318   -0.365254   -0.103552    0.160470
C    -2.634339   -0.723737   -0.599809   -0.277620    0.206182   -0.086966
C    -0.399112    0.357933    0.193049   -0.078526   -0.275830    0.139490
H    -0.799676   -1.788092    0.065473   -0.621794   -0.259746    0.405862
O    -1.110137   -0.057842    1.292410   -0.424178    0.019662    0.091776
C    -0.408827    1.766659   -0.292358    0.254958   -0.299150   -0.027792
H     1.536254   -0.122783    0.095894    0.290114   -0.283374    0.164072
H    -3.000515    0.320923   -0.651714    0.067906    0.426422   -0.574838
H    -3.356310   -1.323056   -0.007901   -0.655408    0.651978    0.110674
H    -2.589545   -1.134867   -1.621339   -0.193954   -0.232168    0.027334
H     0.003342    2.420975    0.477323    0.162404   -0.302558    0.029074
H     0.191883    1.868632   -1.201348    0.505290   -0.449186    0.086616
H    -1.437542    2.093178   -0.507075    0.325318   -0.162118   -0.303510
Cl    2.806491   -0.347012   -0.161049    0.352860    0.168518   -0.102604
14
* Frequency(6)  -29.2100
C    -1.240642   -0.793770    0.008206   -0.365254   -0.103552    0.160470
C    -2.616844   -0.736730   -0.594329   -0.277620    0.206182   -0.086966
C    -0.394164    0.375315    0.184259   -0.078526   -0.275830    0.139490
H    -0.760492   -1.771723    0.039897   -0.621794   -0.259746    0.405862
O    -1.083406   -0.059081    1.286627   -0.424178    0.019662    0.091776
C    -0.424893    1.785511   -0.290607    0.254958   -0.299150   -0.027792
H     1.517971   -0.104926    0.085555    0.290114   -0.283374    0.164072
H    -3.004794    0.294051   -0.615490    0.067906    0.426422   -0.574838
H    -3.315008   -1.364141   -0.014875   -0.655408    0.651978    0.110674
H    -2.577323   -1.120236   -1.623061   -0.193954   -0.232168    0.027334
H    -0.006892    2.440041    0.475491    0.162404   -0.302558    0.029074
H     0.160041    1.896938   -1.206806    0.505290   -0.449186    0.086616
H    -1.458043    2.103394   -0.487949    0.325318   -0.162118   -0.303510
Cl    2.784255   -0.357632   -0.154583    0.352860    0.168518   -0.102604
14
* Frequency(6)  -29.2100
C    -1.207433   -0.784355   -0.006385   -0.365254   -0.103552    0.160470
C    -2.591602   -0.755477   -0.586422   -0.277620    0.206182   -0.086966
C    -0.387024    0.400394    0.171576   -0.078526   -0.275830    0.139490
H    -0.703957   -1.748107    0.002995   -0.621794   -0.259746    0.405862
O    -1.044839   -0.060869    1.278282   -0.424178    0.019662    0.091776
C    -0.448075    1.812710   -0.288080    0.254958   -0.299150   -0.027792
H     1.491594   -0.079161    0.070637    0.290114   -0.283374    0.164072
H    -3.010968    0.255280   -0.563224    0.067906    0.426422   -0.574838
H    -3.255417   -1.423420   -0.024938   -0.655408    0.651978    0.110674
H    -2.559688   -1.099127   -1.625547   -0.193954   -0.232168    0.027334
H    -0.021658    2.467550    0.472847    0.162404   -0.302558    0.029074
H     0.114099    1.937779   -1.214681    0.505290   -0.449186    0.086616
H    -1.487621    2.118134   -0.460353    0.325318   -0.162118   -0.303510
Cl    2.752172   -0.372954   -0.145254    0.352860    0.168518   -0.102604
14
* Frequency(6)  -29.2100
C    -1.167630   -0.773070   -0.023872   -0.365254   -0.103552    0.160470
C    -2.561349   -0.777945   -0.576945   -0.277620    0.206182   -0.086966
C    -0.378467    0.430452    0.156376   -0.078526   -0.275830    0.139490
H    -0.636198   -1.719801   -0.041233   -0.621794   -0.259746    0.405862
O    -0.998615   -0.063011    1.268281   -0.424178    0.019662    0.091776
C    -0.475858    1.845310   -0.285051    0.254958   -0.299150   -0.027792
H     1.459979   -0.048281    0.052758    0.290114   -0.283374    0.164072
H    -3.018368    0.208811   -0.500582    0.067906    0.426422   -0.574838
H    -3.183995   -1.494469   -0.036998   -0.655408    0.651978    0.110674
H    -2.538552   -1.073827   -1.628525   -0.193954   -0.232168    0.027334
H    -0.039356    2.500521    0.469679    0.162404   -0.302558    0.029074
H     0.059036    1.986728   -1.224120    0.505290   -0.449186    0.086616
H    -1.523072    2.135801   -0.427279    0.325318   -0.162118   -0.303510
Cl    2.713720   -0.391318   -0.134073    0.352860    0.168518   -0.102604
14
* Frequency(6)  -29.2100
C    -1.125546   -0.761140   -0.042360   -0.365254   -0.103552    0.160470
C    -2.529363   -0.801701   -0.566925   -0.277620    0.206182   -0.086966
C    -0.369419    0.462232    0.140304   -0.078526   -0.275830    0.139490
H    -0.564558   -1.689875   -0.087995   -0.621794   -0.259746    0.405862
O    -0.949743   -0.065277    1.257707   -0.424178    0.019662    0.091776
C    -0.505234    1.879776   -0.281849    0.254958   -0.299150   -0.027792
H     1.426553   -0.015631    0.033854    0.290114   -0.283374    0.164072
H    -3.026192    0.159681   -0.434352    0.067906    0.426422   -0.574838
H    -3.108481   -1.569587   -0.049750   -0.655408    0.651978    0.110674
H    -2.516206   -1.047077   -1.631675   -0.193954   -0.232168    0.027334
H    -0.058068    2.535381    0.466329    0.162404   -0.302558    0.029074
H     0.000818    2.038482   -1.234100    0.505290   -0.449186    0.086616
H    -1.560554    2.154479   -0.392309    0.325318   -0.162118   -0.303510
Cl    2.673064   -0.410734   -0.122251    0.352860    0.168518   -0.102604
14
* Frequency(6)  -29.2100
C    -1.085743   -0.749855   -0.059847   -0.365254   -0.103552    0.160470
C    -2.499110   -0.824169   -0.557448   -0.277620    0.206182   -0.086966
C    -0.360862    0.492290    0.125104   -0.078526   -0.275830    0.139490
H    -0.496799   -1.661569   -0.132223   -0.621794   -0.259746    0.405862
O    -0.903519   -0.067419    1.247706   -0.424178    0.019662    0.091776
C    -0.533017    1.912376   -0.278820    0.254958   -0.299150   -0.027792
H     1.394938    0.015249    0.015975    0.290114   -0.283374    0.164072
H    -3.033592    0.113212   -0.371710    0.067906    0.426422   -0.574838
H    -3.037059   -1.640636   -0.061810   -0.655408    0.651978    0.110674
H    -2.495070   -1.021777   -1.634653   -0.193954   -0.232168    0.027334
H    -0.075766    2.568352    0.463161    0.162404   -0.302558    0.029074
H    -0.054245    2.087431   -1.243539    0.505290   -0.449186    0.086616
H    -1.596005    2.172146   -0.359235    0.325318   -0.162118   -0.303510
Cl    2.634612   -0.429098   -0.111070    0.352860    0.168518   -0.102604
14
* Frequency(6)  -29.2100
C    -1.052534   -0.740440   -0.074438   -0.365254   -0.103552    0.160470
C    -2.473868   -0.842916   -0.549541   -0.277620    0.206182   -0.086966
C    -0.353722    0.517369    0.112421   -0.078526   -0.275830    0.139490
H    -0.440264   -1.637953   -0.169125   -0.621794   -0.259746    0.405862
O    -0.864952   -0.069207    1.239361   -0.424178    0.019662    0.091776
C    -0.556199    1.939575   -0.276293    0.254958   -0.299150   -0.027792
H     1.368561    0.041014    0.001057    0.290114   -0.283374    0.164072
H    -3.039766    0.074441   -0.319444    0.067906    0.426422   -0.574838
H    -2.977468   -1.699915   -0.071873   -0.655408    0.651978    0.110674
H    -2.477435   -1.000668   -1.637139   -0.193954   -0.232168    0.027334
H    -0.090532    2.595861    0.460517    0.162404   -0.302558    0.029074
H    -0.100187    2.128272   -1.251414    0.505290   -0.449186    0.086616
H    -1.625583    2.186886   -0.331639    0.325318   -0.162118   -0.303510
Cl    2.602529   -0.444420   -0.101741    0.352860    0.168518   -0.102604
14
* Frequency(6)  -29.2100
C    -1.029517   -0.733914   -0.084550   -0.365254   -0.103552    0.160470
C    -2.456373   -0.855909   -0.544061   -0.277620    0.206182   -0.086966
C    -0.348774    0.534751    0.103631   -0.078526   -0.275830    0.139490
H    -0.401080   -1.621584   -0.194701   -0.621794   -0.259746    0.405862
O    -0.838221   -0.070446    1.233578   -0.424178    0.019662    0.091776
C    -0.572265    1.958427   -0.274542    0.254958   -0.299150   -0.027792
H     1.350278    0.058871   -0.009282    0.290114   -0.283374    0.164072
H    -3.044045    0.047569   -0.283220    0.067906    0.426422   -0.574838
H    -2.936166   -1.741000   -0.078847   -0.655408    0.651978    0.110674
H    -2.465213   -0.986037   -1.638861   -0.193954   -0.232168    0.027334
H    -0.100766    2.614927    0.458685    0.162404   -0.302558    0.029074
H    -0.132029    2.156578   -1.256872    0.505290   -0.449186    0.086616
H    -1.646084    2.197102   -0.312513    0.325318   -0.162118   -0.303510
Cl    2.580293   -0.455040   -0.095275    0.352860    0.168518   -0.102604
14
* Frequency(6)  -29.2100
C    -1.019186   -0.730986   -0.089089   -0.365254   -0.103552    0.160470
C    -2.448521   -0.861740   -0.541601   -0.277620    0.206182   -0.086966
C    -0.346553    0.542553    0.099685   -0.078526   -0.275830    0.139490
H    -0.383493   -1.614237   -0.206181   -0.621794   -0.259746    0.405862
O    -0.826224   -0.071002    1.230982   -0.424178    0.019662    0.091776
C    -0.579477    1.966888   -0.273756    0.254958   -0.299150   -0.027792
H     1.342073    0.066886   -0.013923    0.290114   -0.283374    0.164072
H    -3.045966    0.035508   -0.266961    0.067906    0.426422   -0.574838
H    -2.917629   -1.759441   -0.081978   -0.655408    0.651978    0.110674
H    -2.459727   -0.979471   -1.639634   -0.193954   -0.232168    0.027334
H    -0.105359    2.623485    0.457863    0.162404   -0.302558    0.029074
H    -0.146320    2.169283   -1.259322    0.505290   -0.449186    0.086616
H    -1.655285    2.201687   -0.303928    0.325318   -0.162118   -0.303510
Cl    2.570313   -0.459806   -0.092373    0.352860    0.168518   -0.102604
14
* Frequency(6)  -29.2100
C    -1.022661   -0.731971   -0.087562   -0.365254   -0.103552    0.160470
C    -2.451162   -0.859779   -0.542428   -0.277620    0.206182   -0.086966
C    -0.347300    0.539928    0.101012   -0.078526   -0.275830    0.139490
H    -0.389409   -1.616709   -0.202319   -0.621794   -0.259746    0.405862
O    -0.830260   -0.070815    1.231855   -0.424178    0.019662    0.091776
C    -0.577051    1.964042   -0.274020    0.254958   -0.299150   -0.027792
H     1.344833    0.064190   -0.012362    0.290114   -0.283374    0.164072
H    -3.045320    0.039565   -0.272430    0.067906    0.426422   -0.574838
H    -2.923865   -1.753238   -0.080925   -0.655408    0.651978    0.110674
H    -2.461572   -0.981680   -1.639374   -0.193954   -0.232168    0.027334
H    -0.103814    2.620606    0.458139    0.162404   -0.302558    0.029074
H    -0.141513    2.165009   -1.258498    0.505290   -0.449186    0.086616
H    -1.652190    2.200145   -0.306816    0.325318   -0.162118   -0.303510
Cl    2.573670   -0.458202   -0.093349    0.352860    0.168518   -0.102604
14
* Frequency(6)  -29.2100
C    -1.039566   -0.736763   -0.080135   -0.365254   -0.103552    0.160470
C    -2.464011   -0.850236   -0.546453   -0.277620    0.206182   -0.086966
C    -0.350934    0.527162    0.107468   -0.078526   -0.275830    0.139490
H    -0.418187   -1.628730   -0.183535   -0.621794   -0.259746    0.405862
O    -0.849891   -0.069905    1.236103   -0.424178    0.019662    0.091776
C    -0.565251    1.950196   -0.275307    0.254958   -0.299150   -0.027792
H     1.358260    0.051075   -0.004768    0.290114   -0.283374    0.164072
H    -3.042177    0.059301   -0.299035    0.067906    0.426422   -0.574838
H    -2.954198   -1.723063   -0.075802   -0.655408    0.651978    0.110674
H    -2.470549   -0.992425   -1.638109   -0.193954   -0.232168    0.027334
H    -0.096298    2.606603    0.459485    0.162404   -0.302558    0.029074
H    -0.118127    2.144220   -1.254489    0.505290   -0.449186    0.086616
H    -1.637134    2.192642   -0.320863    0.325318   -0.162118   -0.303510
Cl    2.590001   -0.450403   -0.098098    0.352860    0.168518   -0.102604
14
* Frequency(6)  -29.2100
C    -1.068068   -0.744844   -0.067613   -0.365254   -0.103552    0.160470
C    -2.485675   -0.834147   -0.553240   -0.277620    0.206182   -0.086966
C    -0.357062    0.505638    0.118353   -0.078526   -0.275830    0.139490
H    -0.466708   -1.648999   -0.151864   -0.621794   -0.259746    0.405862
O    -0.882992   -0.068371    1.243265   -0.424178    0.019662    0.091776
C    -0.545355    1.926853   -0.277475    0.254958   -0.299150   -0.027792
H     1.380899    0.028962    0.008035    0.290114   -0.283374    0.164072
H    -3.036878    0.092576   -0.343892    0.067906    0.426422   -0.574838
H    -3.005342   -1.672187   -0.067166   -0.655408    0.651978    0.110674
H    -2.485684   -1.010542   -1.635976   -0.193954   -0.232168    0.027334
H    -0.083625    2.582993    0.461754    0.162404   -0.302558    0.029074
H    -0.078697    2.109169   -1.247730    0.505290   -0.449186    0.086616
H    -1.611748    2.179991   -0.344547    0.325318   -0.162118   -0.303510
Cl    2.617536   -0.437253   -0.106105    0.352860    0.168518   -0.102604
14
* Frequency(6)  -29.2100
C    -1.105079   -0.755337   -0.051353   -0.365254   -0.103552    0.160470
C    -2.513806   -0.813255   -0.562052   -0.277620    0.206182   -0.086966
C    -0.365019    0.477689    0.132488   -0.078526   -0.275830    0.139490
H    -0.529714   -1.675319   -0.110738   -0.621794   -0.259746    0.405862
O    -0.925973   -0.066378    1.252564   -0.424178    0.019662    0.091776
C    -0.519521    1.896540   -0.280292    0.254958   -0.299150   -0.027792
H     1.410296    0.000248    0.024660    0.290114   -0.283374    0.164072
H    -3.029997    0.135785   -0.402140    0.067906    0.426422   -0.574838
H    -3.071754   -1.606122   -0.055952   -0.655408    0.651978    0.110674
H    -2.505337   -1.034067   -1.633206   -0.193954   -0.232168    0.027334
H    -0.067168    2.552335    0.464700    0.162404   -0.302558    0.029074
H    -0.027497    2.063653   -1.238953    0.505290   -0.449186    0.086616
H    -1.578784    2.163564   -0.375302    0.325318   -0.162118   -0.303510
Cl    2.653291   -0.420177   -0.116502    0.352860    0.168518   -0.102604
14
* Frequency(6)  -29.2100
C    -1.146588   -0.767105   -0.033116   -0.365254   -0.103552    0.160470
C    -2.545356   -0.789823   -0.571935   -0.277620    0.206182   -0.086966
C    -0.373943    0.446342    0.148340   -0.078526   -0.275830    0.139490
H    -0.600378   -1.704838   -0.064614   -0.621794   -0.259746    0.405862
O    -0.974179   -0.064144    1.262994   -0.424178    0.019662    0.091776
C    -0.490546    1.862543   -0.283450    0.254958   -0.299150   -0.027792
H     1.443266   -0.031956    0.043306    0.290114   -0.283374    0.164072
H    -3.022280    0.184246   -0.467467    0.067906    0.426422   -0.574838
H    -3.146238   -1.532028   -0.043374   -0.655408    0.651978    0.110674
H    -2.527379   -1.060452   -1.630100   -0.193954   -0.232168    0.027334
H    -0.048712    2.517951    0.468004    0.162404   -0.302558    0.029074
H     0.029927    2.012605   -1.229110    0.505290   -0.449186    0.086616
H    -1.541813    2.145140   -0.409794    0.325318   -0.162118   -0.303510
Cl    2.693392   -0.401026   -0.128162    0.352860    0.168518   -0.102604
