
                                 *****************
                                 * O   R   C   A *
                                 *****************

                                            #,                                       
                                            ###                                      
                                            ####                                     
                                            #####                                    
                                            ######                                   
                                           ########,                                 
                                     ,,################,,,,,                         
                               ,,#################################,,                 
                          ,,##########################################,,             
                       ,#########################################, ''#####,          
                    ,#############################################,,   '####,        
                  ,##################################################,,,,####,       
                ,###########''''           ''''###############################       
              ,#####''   ,,,,##########,,,,          '''####'''          '####       
            ,##' ,,,,###########################,,,                        '##       
           ' ,,###''''                  '''############,,,                           
         ,,##''                                '''############,,,,        ,,,,,,###''
      ,#''                                            '''#######################'''  
     '                                                          ''''####''''         
             ,#######,   #######,   ,#######,      ##                                
            ,#'     '#,  ##    ##  ,#'     '#,    #''#        ,####,    ,#,          
            ##       ##  ##   ,#'  ##            #'  '#       #'       ,# #          
            ##       ##  #######   ##           ,######,      #####,      #          
            '#,     ,#'  ##    ##  '#,     ,#' ,#      #,     #,   #      #          
             '#######'   ##     ##  '#######'  #'      '#     '####' #    #          



                #########################################################
                #                        -***-                          #
                #          Department of theory and spectroscopy        #
                #                                                       #
                #                      Frank Neese                      #
                #                                                       #
                #     Directorship, Architecture, Infrastructure        #
                #                    SHARK, DRIVERS                     #
                #        Core code/Algorithms in most modules           #
                #                                                       #
                #        Max Planck Institute fuer Kohlenforschung      #
                #                Kaiser Wilhelm Platz 1                 #
                #                 D-45470 Muelheim/Ruhr                 #
                #                      Germany                          #
                #                                                       #
                #                  All rights reserved                  #
                #                        -***-                          #
                #########################################################


                         Program Version 6.1.0  -  RELEASE   -
                                (GIT: $679e74b$)
                          ($2025-06-10 18:02:51 +0200$)


 With contributions from (in alphabetic order):
[Max-Planck-Institut fuer Kohlenforschung]                               
  Daniel Aravena         : Magnetic Suceptibility                        
  Michael Atanasov       : Ab Initio Ligand Field Theory (pilot matlab implementation)
  Alexander A. Auer      : GIAO ZORA, VPT2 properties, NMR spectrum      
  Ute Becker             : All parallelization in ORCA, NUMFREQ, NUMCALC 
  Giovanni Bistoni       : ED, misc. LED, open-shell LED, HFLD           
  Dmytro Bykov           : pre 5.0 version of the SCF Hessian            
  Marcos Casanova-Páez   : Triplet and SCS-CIS(D). UHF-(DLPNO)-IP/EA/STEOM-CCSD. UHF-CVS-IP/STEOM-CCSD   
  Vijay G. Chilkuri      : MRCI spin determinant printing, contributions to CSF-ICE 
  Pauline Colinet        : FMM embedding                                 
  Dipayan Datta          : RHF DLPNO-CCSD density                        
  Achintya Kumar Dutta   : EOM-CC, STEOM-CC                              
  Nicolas Foglia         : Exact transition moments, OPA infrastructure, MCD improvements    
  Dmitry Ganyushin       : Spin-Orbit,Spin-Spin,Magnetic field MRCI      
  Miquel Garcia-Rates    : C-PCM and meta-GGA Hessian, CCSD/C-PCM, Gaussian charge scheme 
  Tiago L. C. Gouveia    : GS-ROHF, GS-ROCIS                             
  Yang Guo               : DLPNO-NEVPT2, F12-NEVPT2, CIM, IAO-localization        
  Andreas Hansen         : Spin unrestricted coupled pair/coupled cluster methods 
  Ingolf Harden          : AUTO-CI MPn and infrastructure                
  Benjamin Helmich-Paris : MC-RPA, TRAH-(SCF,CASSCF), AVAS, COSX integrals, SCF dyn. polar., MC-PDFT, srDFT 
  Lee Huntington         : MR-EOM, pCC                                   
  Robert Izsak           : Overlap fitted RIJCOSX, COSX-SCS-MP3, EOM     
  Riya Kayal             : Wick's Theorem for AUTO-CI, AUTO-CI UHF-CCSDT 
  Emily Kempfer          : AUTO-CI RHF CISDT and CCSDT, approximate NEVPT4
  Christian Kollmar      : KDIIS, OOCD, Brueckner-CCSD(T), CCSD density, CASPT2, CASPT2-K, improved NEVPT2 
  Axel Koslowski         : Symmetry handling                             
  Simone Kossmann        : meta-GGA functionals, TD-DFT gradient, OOMP2, (MP2 Hessian; deprecated post 5.0) 
  Lucas Lang             : DCDCAS, Hyperfine gauge corrections, ICE-SOC+SSC
  Marvin Lechner         : AUTO-CI (C++ implementation), FIC-MRCC        
  Spencer Leger          : CASSCF response                               
  Dagmar Lenk            : GEPOL surface, SMD, ORCA-2-JSON               
  Dimitrios Liakos       : Extrapolation schemes; Compound Job, Property file
  Dimitrios Manganas     : Further ROCIS development; embedding schemes. LFT, Crystal Embedding 
  Dimitrios Pantazis     : SARC Basis sets                               
  Anastasios Papadopoulos: AUTO-CI, single reference methods and gradients 
  Taras Petrenko         : pre 6.0 DFT Hessian and TD-DFT gradient,  ECA, NRVS 
  Petra Pikulova         : Analytic Raman intensities                    
  Peter Pinski           : DLPNO-MP2, DLPNO-MP2 Gradient                 
  Shashank Vittal Rao    : ES-AILFT, MagRelax                            
  Christoph Reimann      : Effective Core Potentials                     
  Marius Retegan         : Local ZFS, SOC                                
  Christoph Riplinger    : Optimizer, TS searches, QM/MM, DLPNO-CCSD(T), (RO)-DLPNO pert. Triples 
  Michael Roemelt        : Original ROCIS implementation, recursive CI coupling coefficients
  Masaaki Saitow         : Open-shell DLPNO-CCSD energy and density      
  Barbara Sandhoefer     : DKH picture change effects                    
  Yorick L. A. Schmerwitz: GMF and freeze-and-release deltaSCF, NEB S-IDPP initial path                    
  Kantharuban Sivalingam : CASSCF convergence/infrastructure, NEVPT2, NEVPT3, NEVPT4(SD), FIC-MRCI and CEPA variants
  Bernardo de Souza      : ESD, SOC TD-DFT                               
  Georgi L. Stoychev     : AutoAux, RI-MP2 NMR, DLPNO-MP2 response, X2C  
  Van Anh Tran           : RI-MP2 g-tensors                              
  Willem Van den Heuvel  : Paramagnetic NMR                              
  Zikuan Wang            : NOTCH, Electric field optimization            
  Frank Wennmohs         : Technical directorship and infrastructure     
  Hang Xu                : AUTO-CI-Response properties                   
                                                                         
[FACCTs GmbH]                                                            
  Markus Bursch, Nicolas Foglia, Miquel Garcia-Rates, Ingolf Harden, Hagen Neugebauer, Anastasios Papadopoulos, 
  Christoph Riplinger, Bernardo de Souza, Georgi L. Stoychev                                                    
                                                                 
  APM, various basis sets, CI-OPT, improved COSX, DLPNO-Multilevel,           
  DOCKER, DRACO, updates on ESD, Fragmentator, GOAT, IRC, LR-CPCM, L-BFGS, MBIS, meta-GGA TD-DFT gradient, ML-optimized integration grids, 
  MM, NACMEs, nearIR, NEB, NEB-TS, NL-DFT gradient (VV10), 2- and 3-layer-ONIOM, interface openCOSMO-RS, QMMM,   
  Crystal-QMMM, RESP, rigid body optimization, SF, symmetry and pop. for TD-DFT, various functionals, SOLVATOR                                   
                                                                         
[Other institutions]                                                     
  V. Asgeirsson          : NEB                                           
  Christoph Bannwarth    : sTDA-DFT, sTD-DFT, PBEh-3c, B97-3c, D3        
  Giovanni Bistoni       : ETS/NOCV, ADLD/ADEX, COVALED                  
  Martin Brehm           : Molecular dynamics                            
  Ronald Cardenas        : ETS/NOCV                                      
  Martina Colucci        : COVALED                                       
  Sebastian Ehlert       : rSCAN, r2SCAN, r2SCAN-3c, D4, dhf basis sets  
  Marvin Friede          : D4 for Fr, Ra, Ac-Lr                          
  Lars Goerigk           : TD-DFT with DH, B97 family of functionals     
  Stefan Grimme          : VdW corrections, initial TS optimization, DFT functionals, gCP, sTDA/sTD-DF 
  Waldemar Hujo          : DFT-NL                                        
  H. Jonsson             : NEB                                           
  Holger Kruse           : gCP                                           
  Marcel Mueller         : wB97X-3c, vDZP basis set                      
  Hagen Neugebauer       : wr2SCAN, Native XTB                           
  Gianluca Regni         : ADLD/ADEX                                     
  Tobias Risthaus        : pre 6.0 range-separated hybrid DFT and stability analysis
  Lukas Wittmann         : regularized MP2, r2SCAN double-hybrids, wr2SCAN        
                                                                         
We gratefully acknowledge several colleagues who have allowed us to      
interface, adapt or use parts of their codes:                            
  Ed Valeev, F. Pavosevic, A. Kumar             : LibInt (2-el integral package), F12 methods 
  Garnet Chan, S. Sharma, J. Yang, R. Olivares  : DMRG                   
  Ulf Ekstrom                                   : XCFun DFT Library      
  Mihaly Kallay                                 : mrcc  (arbitrary order and MRCC methods)
  Frank Weinhold                                : gennbo (NPA and NBO analysis)           
  Simon Mueller                                 : openCOSMO-RS                            
  Christopher J. Cramer and Donald G. Truhlar   : smd solvation model                     
  S Lehtola, MJT Oliveira, MAL Marques          : LibXC Library                           
  Liviu Ungur et al                             : ANISO software                          


 Your calculation uses the libint2 library for the computation of 2-el integrals
 For citations please refer to: http://libint.valeyev.net

 Your ORCA version has been built with support for libXC version: 7.0.0
 For citations please refer to: https://libxc.gitlab.io

 This ORCA versions uses:
   CBLAS   interface :  Fast vector & matrix operations
   LAPACKE interface :  Fast linear algebra routines
   SCALAPACK package :  Parallel linear algebra routines
   Shared memory     :  Shared parallel matrices
   BLAS/LAPACK       :  OpenBLAS 0.3.29  USE64BITINT DYNAMIC_ARCH NO_AFFINITY SkylakeX SINGLE_THREADED
        Core in use  :  SkylakeX
   Copyright (c) 2011-2014, The OpenBLAS Project


  ***********************************
  * Starting time: Wed Sep  3 15:52:06 2025
  * Host name:     csed-0038
  * Process ID:    2954063
  * Working dir.:  /gpfs/fs1/home/copan/proj/project-dimethyl-oxirane-cl-abstraction/calc_well_c/full_opt_revdsd
  ***********************************

NOTE: MaxCore=10000 MB was set to SCF,MP2,MDCI,CIPSI,MRCI,RASCI and CIS
      => If you want to overwrite this, your respective input block should be placed after the MaxCore statement


***************************************
The coordinates will be read from file: guess.xyz
***************************************


Your calculation utilizes the atom-pairwise dispersion correction
based on EEQ partial charges (D4)


Warning: RI is on but no J-basis has been assigned. Assigning Def2/J (nothing to worry about!)
================================================================================

----- Orbital basis set information -----
Your calculation utilizes the basis: def2-TZVPP
   F. Weigend and R. Ahlrichs, Phys. Chem. Chem. Phys. 7, 3297 (2005).

----- AuxJ basis set information -----
Your calculation utilizes the auxiliary basis: def2/J
   H-Rn: F. Weigend, Phys. Chem. Chem. Phys. 8, 1057 (2006).
   Fr-Lr: K. Eichkorn, F. Weigend, O. Treutler, R. Ahlrichs; Theor. Chem. Acc. 97, 119 (1997).

----- AuxC basis set information -----
Your calculation utilizes the auxiliary basis: def2-TZVPP/C
  H-La, Hf-Rn : A. Hellweg, C. Hattig, S. Hofener and W. Klopper, Theor. Chem. Acc. 117, 587 (2007).
        Ce-Lu : J. Chmela and M. E. Harding, Mol. Phys. (2018).

================================================================================
                                        WARNINGS
                       Please study these warnings very carefully!
================================================================================


WARNING: your system is open-shell and RHF/RKS was chosen
  ===> : WILL SWITCH to UHF/UKS


WARNING: The frozen-core approximation for MP2-gradient calculations is turned on by default.

WARNING: The environment variable RSH_COMMAND is not set!
  ===> : All Displacements for the Numerical Hessian or Gradient calculation
         will be started on localhost

WARNING: Geometry Optimization
  ===> : Switching off AutoStart
         For restart on a previous wavefunction, please use MOREAD

WARNING: The frozen-core approximation is turned on by default for 
         the MP2 part of double-hybrid DFT.

================================================================================
                                       INPUT FILE
================================================================================
NAME = opt.inp
|  1> % MaxCore 10000
|  2> ! PAL8
|  3> ! REVDSD-PBEP86-D4/2021 def2-TZVPP def2-TZVPP/c
|  4> ! Opt
|  5> ! NumFreq
|  6> * xyzfile 0 2 guess.xyz
|  7> 
|  8>                          ****END OF INPUT****
================================================================================

                       *****************************
                       * Geometry Optimization Run *
                       *****************************

Geometry optimization settings:
Update method            Update   .... BFGS
Choice of coordinates    CoordSys .... (2022) Redundant Internals
Initial Hessian          InHess   .... Almloef's Model
Max. no of cycles        MaxIter  .... 50

Convergence Tolerances:
Energy Change            TolE     ....  5.0000e-06 Eh
Max. Gradient            TolMAXG  ....  3.0000e-04 Eh/bohr
RMS Gradient             TolRMSG  ....  1.0000e-04 Eh/bohr
Max. Displacement        TolMAXD  ....  4.0000e-03 bohr
RMS Displacement         TolRMSD  ....  2.0000e-03 bohr
Strict Convergence                .... False

------------------------------------------------------------------------------
                        ORCA OPTIMIZATION COORDINATE SETUP
------------------------------------------------------------------------------

The optimization will be done in redundant internal coordinates (2022)
Making redundant internal coordinates   ...  (2022 redundants) done
Evaluating the initial hessian          ...  (Almloef) done
Evaluating the coordinates              ...  done
Calculating the B-matrix                .... done
Calculating the G-matrix                .... done
The number of degrees of freedom        ....   66

    -----------------------------------------------------------------
                    Redundant Internal Coordinates


    -----------------------------------------------------------------
         Definition                    Initial Value    Approx d2E/dq
    -----------------------------------------------------------------
      1. B(C   1,C   0)                  1.4946         0.425499   
      2. B(C   2,C   0)                  1.4596         0.483847   
      3. B(H   3,C   0)                  1.0828         0.369701   
      4. B(O   4,C   2)                  1.3777         0.585524   
      5. B(O   4,C   0)                  1.4759         0.408088   
      6. B(C   5,C   2)                  1.4941         0.426223   
      7. B(H   6,C   2)                  1.2194         0.223890   
      8. B(H   6,O   4)                  2.1620         0.010000   
      9. B(H   7,C   1)                  1.0866         0.364565   
     10. B(H   8,C   1)                  1.0891         0.361295   
     11. B(H   9,C   1)                  1.0900         0.360162   
     12. B(H  10,C   5)                  1.0881         0.362677   
     13. B(H  11,C   5)                  1.0874         0.363570   
     14. B(H  12,C   5)                  1.0890         0.361390   
     15. B(Cl 13,H   6)                  1.6358         0.108805   
     16. A(C   1,C   0,C   2)          124.1553         0.388588   
     17. A(C   1,C   0,H   3)          116.8505         0.332801   
     18. A(C   2,C   0,H   3)          115.9310         0.339996   
     19. A(H   3,C   0,O   4)          112.0037         0.328519   
     20. A(C   1,C   0,O   4)          116.0004         0.374889   
     21. A(C   2,C   0,O   4)           55.9754         0.383327   
     22. A(C   0,C   1,H   8)          110.2984         0.331535   
     23. A(C   0,C   1,H   7)          111.5117         0.332031   
     24. A(H   8,C   1,H   9)          107.9452         0.290999   
     25. A(H   7,C   1,H   9)          108.7856         0.291411   
     26. A(C   0,C   1,H   9)          109.7167         0.331363   
     27. A(H   7,C   1,H   8)          108.4962         0.291555   
     28. A(C   0,C   2,O   4)           62.6129         0.408387   
     29. A(C   5,C   2,H   6)          109.2415         0.306723   
     30. A(O   4,C   2,H   6)          112.5677         0.321022   
     31. A(C   0,C   2,H   6)          111.4522         0.313062   
     32. A(O   4,C   2,C   5)          121.3948         0.399351   
     33. A(C   0,C   2,C   5)          131.9501         0.388704   
     34. A(C   0,O   4,C   2)           61.4117         0.393783   
     35. A(H  11,C   5,H  12)          109.5596         0.291442   
     36. A(H  10,C   5,H  12)          108.6993         0.291329   
     37. A(C   2,C   5,H  12)          110.4325         0.331643   
     38. A(H  10,C   5,H  11)          108.6125         0.291605   
     39. A(C   2,C   5,H  11)          109.7711         0.331974   
     40. A(C   2,C   5,H  10)          109.7322         0.331839   
     41. A(C   2,H   6,Cl 13)          173.9546         0.238343   
     42. D(H   7,C   1,C   0,C   2)    -21.9448         0.014317   
     43. D(H   8,C   1,C   0,H   3)     58.0840         0.014317   
     44. D(H   7,C   1,C   0,O   4)     43.1319         0.014317   
     45. D(H   7,C   1,C   0,H   3)    178.7051         0.014317   
     46. D(H   8,C   1,C   0,C   2)   -142.5659         0.014317   
     47. D(H   8,C   1,C   0,O   4)    -77.4892         0.014317   
     48. D(O   4,C   2,C   0,C   1)    100.4354         0.018512   
     49. D(H   6,C   2,C   0,C   1)   -154.4460         0.018512   
     50. D(C   5,C   2,C   0,H   3)    151.1004         0.018512   
     51. D(C   5,C   2,C   0,O   4)   -108.8564         0.018512   
     52. D(O   4,C   2,C   0,H   3)   -100.0432         0.018512   
     53. D(C   5,C   2,C   0,C   1)     -8.4210         0.018512   
     54. D(C   0,O   4,C   2,C   5)    124.4597         0.029923   
     55. D(C   2,O   4,C   0,H   3)    107.2323         0.014209   
     56. D(C   2,O   4,C   0,C   1)   -115.1129         0.014209   
     57. D(C   0,O   4,C   2,H   6)   -103.3405         0.029923   
     58. D(H  11,C   5,C   2,H   6)     52.3339         0.014365   
     59. D(H  11,C   5,C   2,O   4)   -174.0981         0.014365   
     60. D(H  11,C   5,C   2,C   0)    -94.2380         0.014365   
     61. D(H  10,C   5,C   2,H   6)    -66.9571         0.014365   
     62. D(H  10,C   5,C   2,O   4)     66.6109         0.014365   
     63. D(H  10,C   5,C   2,C   0)    146.4710         0.014365   
     64. D(Cl 13,H   6,C   2,C   5)    -70.0773         0.043171   
     65. D(Cl 13,H   6,C   2,O   4)    151.9717         0.043171   
     66. D(Cl 13,H   6,C   2,C   0)     83.8054         0.043171   
    -----------------------------------------------------------------

Number of atoms                         .... 14
Number of degrees of freedom            .... 66


         *************************************************************
         *                GEOMETRY OPTIMIZATION CYCLE   1            *
         *************************************************************
---------------------------------
CARTESIAN COORDINATES (ANGSTROEM)
---------------------------------
  C     -1.130313   -0.766257   -0.051907
  C     -2.526345   -0.665113   -0.575943
  C     -0.245485    0.377083    0.148752
  H     -0.645929   -1.731255   -0.133687
  O     -0.883508   -0.132882    1.258185
  C     -0.372822    1.817002   -0.229116
  H      0.927434    0.048757    0.091262
  H     -2.935492    0.330951   -0.430158
  H     -3.172481   -1.381434   -0.070446
  H     -2.536989   -0.896518   -1.640995
  H      0.105704    2.438406    0.525034
  H      0.116884    1.991335   -1.184214
  H     -1.422016    2.100025   -0.300315
  Cl     2.487102   -0.377265   -0.157216

----------------------------
CARTESIAN COORDINATES (A.U.)
----------------------------
  NO LB      ZA    FRAG     MASS         X           Y           Z
   0 C     6.0000    0    12.011   -2.135982   -1.448016   -0.098090
   1 C     6.0000    0    12.011   -4.774100   -1.256881   -1.088375
   2 C     6.0000    0    12.011   -0.463899    0.712584    0.281101
   3 H     1.0000    0     1.008   -1.220629   -3.271598   -0.252632
   4 O     8.0000    0    15.999   -1.669588   -0.251111    2.377625
   5 C     6.0000    0    12.011   -0.704531    3.433636   -0.432966
   6 H     1.0000    0     1.008    1.752596    0.092137    0.172460
   7 H     1.0000    0     1.008   -5.547276    0.625407   -0.812881
   8 H     1.0000    0     1.008   -5.995120   -2.610532   -0.133124
   9 H     1.0000    0     1.008   -4.794214   -1.694173   -3.101031
  10 H     1.0000    0     1.008    0.199752    4.607920    0.992170
  11 H     1.0000    0     1.008    0.220879    3.763078   -2.237840
  12 H     1.0000    0     1.008   -2.687221    3.968472   -0.567513
  13 Cl   17.0000    0    35.453    4.699942   -0.712928   -0.297095

--------------------------------
INTERNAL COORDINATES (ANGSTROEM)
--------------------------------
 C      0   0   0     0.000000000000     0.00000000     0.00000000
 C      1   0   0     1.494573244460     0.00000000     0.00000000
 C      1   2   0     1.459592744386   124.15529021     0.00000000
 H      1   2   3     1.082837461423   116.85048356   200.64984017
 O      3   1   2     1.377671670335    62.61289000   100.43544943
 C      3   1   2     1.494110325095   131.95009885   351.57902165
 H      3   1   2     1.219361325833   111.45223180   205.55403152
 H      2   1   3     1.086645308245   111.51166383   338.05521884
 H      2   1   3     1.089098123470   110.29836246   217.43414863
 H      2   1   3     1.089952903324   109.71668827    98.64917896
 H      6   3   1     1.088058953546   109.73216572   146.47102085
 H      6   3   1     1.087389604019   109.77106449   265.76204487
 H      6   3   1     1.089026797543   110.43248309    26.66300314
 Cl     7   3   1     1.635787373466   173.95460365    83.80543007

---------------------------
INTERNAL COORDINATES (A.U.)
---------------------------
 C      0   0   0     0.000000000000     0.00000000     0.00000000
 C      1   0   0     2.824334119116     0.00000000     0.00000000
 C      1   2   0     2.758230553949   124.15529021     0.00000000
 H      1   2   3     2.046266249639   116.85048356   200.64984017
 O      3   1   2     2.603422159395    62.61289000   100.43544943
 C      3   1   2     2.823459328293   131.95009885   351.57902165
 H      3   1   2     2.304258964119   111.45223180   205.55403152
 H      2   1   3     2.053462037293   111.51166383   338.05521884
 H      2   1   3     2.058097186326   110.29836246   217.43414863
 H      2   1   3     2.059712486155   109.71668827    98.64917896
 H      6   3   1     2.056133439763   109.73216572   146.47102085
 H      6   3   1     2.054868552469   109.77106449   265.76204487
 H      6   3   1     2.057962399857   110.43248309    26.66300314
 Cl     7   3   1     3.091190149178   173.95460365    83.80543007

---------------------
BASIS SET INFORMATION
---------------------
There are 4 groups of distinct atoms

 Group   1 Type C   : 11s6p2d1f contracted to 5s3p2d1f pattern {62111/411/11/1}
 Group   2 Type H   : 5s2p1d contracted to 3s2p1d pattern {311/11/1}
 Group   3 Type O   : 11s6p2d1f contracted to 5s3p2d1f pattern {62111/411/11/1}
 Group   4 Type Cl  : 14s9p3d1f contracted to 5s5p3d1f pattern {73211/51111/111/1}

Atom   0C    basis set group =>   1
Atom   1C    basis set group =>   1
Atom   2C    basis set group =>   1
Atom   3H    basis set group =>   2
Atom   4O    basis set group =>   3
Atom   5C    basis set group =>   1
Atom   6H    basis set group =>   2
Atom   7H    basis set group =>   2
Atom   8H    basis set group =>   2
Atom   9H    basis set group =>   2
Atom  10H    basis set group =>   2
Atom  11H    basis set group =>   2
Atom  12H    basis set group =>   2
Atom  13Cl   basis set group =>   4
---------------------------------
AUXILIARY/J BASIS SET INFORMATION
---------------------------------
There are 4 groups of distinct atoms

 Group   1 Type C   : 12s5p4d2f1g contracted to 6s4p3d1f1g pattern {711111/2111/211/2/1}
 Group   2 Type H   : 5s2p1d contracted to 3s1p1d pattern {311/2/1}
 Group   3 Type O   : 12s5p4d2f1g contracted to 6s4p3d1f1g pattern {711111/2111/211/2/1}
 Group   4 Type Cl  : 14s5p5d2f1g contracted to 8s4p3d1f1g pattern {71111111/2111/311/2/1}

Atom   0C    basis set group =>   1
Atom   1C    basis set group =>   1
Atom   2C    basis set group =>   1
Atom   3H    basis set group =>   2
Atom   4O    basis set group =>   3
Atom   5C    basis set group =>   1
Atom   6H    basis set group =>   2
Atom   7H    basis set group =>   2
Atom   8H    basis set group =>   2
Atom   9H    basis set group =>   2
Atom  10H    basis set group =>   2
Atom  11H    basis set group =>   2
Atom  12H    basis set group =>   2
Atom  13Cl   basis set group =>   4
---------------------------------
AUXILIARY/C BASIS SET INFORMATION
---------------------------------
There are 4 groups of distinct atoms

 Group   1 Type C   : 8s6p5d3f1g contracted to 8s6p4d3f1g pattern {11111111/111111/2111/111/1}
 Group   2 Type H   : 4s3p2d1f contracted to 4s3p2d1f pattern {1111/111/11/1}
 Group   3 Type O   : 8s6p5d3f1g contracted to 8s6p4d3f1g pattern {11111111/111111/2111/111/1}
 Group   4 Type Cl  : 11s8p7d5f2g contracted to 11s8p7d5f2g pattern {11111111111/11111111/1111111/11111/11}

Atom   0C    basis set group =>   1
Atom   1C    basis set group =>   1
Atom   2C    basis set group =>   1
Atom   3H    basis set group =>   2
Atom   4O    basis set group =>   3
Atom   5C    basis set group =>   1
Atom   6H    basis set group =>   2
Atom   7H    basis set group =>   2
Atom   8H    basis set group =>   2
Atom   9H    basis set group =>   2
Atom  10H    basis set group =>   2
Atom  11H    basis set group =>   2
Atom  12H    basis set group =>   2
Atom  13Cl   basis set group =>   4


           ************************************************************
           *        Program running with 8 parallel MPI-processes     *
           *              working on a common directory               *
           ************************************************************
------------------------------------------------------------------------------
                             ORCA STARTUP CALCULATIONS
                           -- RI-GTO INTEGRALS CHOSEN --
------------------------------------------------------------------------------
------------------------------------------------------------------------------
                   ___                                                        
                  /   \      - P O W E R E D   B Y -                         
                 /     \                                                     
                 |  |  |   _    _      __       _____    __    __             
                 |  |  |  | |  | |    /  \     |  _  \  |  |  /  |          
                  \  \/   | |  | |   /    \    | | | |  |  | /  /          
                 / \  \   | |__| |  /  /\  \   | |_| |  |  |/  /          
                |  |  |   |  __  | /  /__\  \  |    /   |      \           
                |  |  |   | |  | | |   __   |  |    \   |  |\   \          
                \     /   | |  | | |  |  |  |  | |\  \  |  | \   \       
                 \___/    |_|  |_| |__|  |__|  |_| \__\ |__|  \__/        
                                                                              
                      - O R C A' S   B I G   F R I E N D -                    
                                      &                                       
                       - I N T E G R A L  F E E D E R -                       
                                                                              
 v1 FN, 2020, v2 2021, v3 2022-2024                                           
------------------------------------------------------------------------------


----------------------
SHARK INTEGRAL PACKAGE
----------------------

Number of atoms                             ...     14
Number of basis functions                   ...    309
Number of shells                            ...    117
Maximum angular momentum                    ...      3
Integral batch strategy                     ... SHARK/LIBINT Hybrid
RI-J (if used) integral strategy            ... SPLIT-RIJ (Revised 2003 algorithm where possible)
Printlevel                                  ...      1
Contraction scheme used                     ... SEGMENTED contraction
Prescreening option                         ... SCHWARTZ
   Thresh                                   ... 2.500e-11
   Tcut                                     ... 2.500e-12
   Tpresel                                  ... 2.500e-12 
Coulomb Range Separation                    ... NOT USED
Exchange Range Separation                   ... NOT USED
Multipole approximations                    ... NOT USED
Finite Nucleus Model                        ... NOT USED
CABS basis                                  ... NOT available
Auxiliary Coulomb fitting basis             ... AVAILABLE
   # of basis functions in Aux-J            ...    384
   # of shells in Aux-J                     ...    132
   Maximum angular momentum in Aux-J        ...      4
Auxiliary J/K fitting basis                 ... NOT available
Auxiliary Correlation fitting basis         ... AVAILABLE
   # of basis functions in Aux-C            ...    743
   # of shells in Aux-C                     ...    223
   Maximum angular momentum in Aux-C        ...      4
Auxiliary 'external' fitting basis          ... NOT available

Checking pre-screening integrals            ... done (  0.0 sec) Dimension = 117
   => SHARK Basis and OBASIS are compatible. Storing Pre-screening
Shell pair information
Shell pair cut-off parameter TPreSel        ...   2.5e-12
Total number of shell pairs                 ...      6903
Shell pairs after pre-screening             ...      6253
Total number of primitive shell pairs       ...     18505
Primitive shell pairs kept                  ...     13090
          la=0 lb=0:   1337 shell pairs
          la=1 lb=0:   1764 shell pairs
          la=1 lb=1:    615 shell pairs
          la=2 lb=0:   1000 shell pairs
          la=2 lb=1:    680 shell pairs
          la=2 lb=2:    207 shell pairs
          la=3 lb=0:    305 shell pairs
          la=3 lb=1:    205 shell pairs
          la=3 lb=2:    119 shell pairs
          la=3 lb=3:     21 shell pairs

Checking whether 4 symmetric matrices of dimension 309 fit in memory
:Max Core in MB      =  10000.00
 MB in use           =     11.16
 MB left             =   9988.84
 MB needed           =      1.46
 Data fit in memory  = YES
Calculating RI/J V-Matrix + Cholesky decomp.... done (  0.1 sec)
Calculating RI/C V-Matrix + Cholesky decomp.... done (  0.0 sec)
Calculating Nuclear repulsion               ... done (  0.0 sec) ENN=    282.190746070344 Eh

Diagonalization of the overlap matrix:
Smallest eigenvalue                        ... 1.078e-04
Time for diagonalization                   ...    0.063 sec
Threshold for overlap eigenvalues          ... 1.000e-07
Number of eigenvalues below threshold      ... 0
Time for construction of square roots      ...    0.012 sec
Total time needed                          ...    0.076 sec

-------------------
DFT GRID GENERATION
-------------------

General Integration Accuracy     IntAcc      ... 4.388
Radial Grid Type                 RadialGrid  ... OptM3 with GC (2021)
Angular Grid (max. ang.)         AngularGrid ... 4 (Lebedev-302)
Angular grid pruning method      GridPruning ... 4 (adaptive)
Weight generation scheme         WeightScheme... mBecke (2022)
Basis function cutoff            BFCut       ... 1.0000e-11
Integration weight cutoff        WCut        ... 1.0000e-14
Partially contracted basis set               ... off
Rotationally invariant grid construction     ... off
Angular grids for H and He will be reduced by one unit

Total number of grid points                  ...    63328
Total number of batches                      ...      997
Average number of points per batch           ...       63
Average number of grid points per atom       ...     4523

--------------------
COSX GRID GENERATION
--------------------

GRIDX 1
-------
General Integration Accuracy     IntAcc      ... 3.816
Radial Grid Type                 RadialGrid  ... OptM3 with GC (2021)
Angular Grid (max. ang.)         AngularGrid ... 1 (Lebedev-50)
Angular grid pruning method      GridPruning ... 4 (adaptive)
Weight generation scheme         WeightScheme... mBecke (2022)
Basis function cutoff            BFCut       ... 1.0000e-11
Integration weight cutoff        WCut        ... 1.0000e-14
Partially contracted basis set               ... on
Rotationally invariant grid construction     ... off
Angular grids for H and He will be reduced by one unit

Total number of grid points                  ...     9166
Total number of batches                      ...       78
Average number of points per batch           ...      117
Average number of grid points per atom       ...      655
UseSFitting                                  ... on

GRIDX 2
-------
General Integration Accuracy     IntAcc      ... 4.020
Radial Grid Type                 RadialGrid  ... OptM3 with GC (2021)
Angular Grid (max. ang.)         AngularGrid ... 2 (Lebedev-110)
Angular grid pruning method      GridPruning ... 4 (adaptive)
Weight generation scheme         WeightScheme... mBecke (2022)
Basis function cutoff            BFCut       ... 1.0000e-11
Integration weight cutoff        WCut        ... 1.0000e-14
Partially contracted basis set               ... on
Rotationally invariant grid construction     ... off
Angular grids for H and He will be reduced by one unit

Total number of grid points                  ...    17151
Total number of batches                      ...      143
Average number of points per batch           ...      119
Average number of grid points per atom       ...     1225
UseSFitting                                  ... on

GRIDX 3
-------
General Integration Accuracy     IntAcc      ... 4.338
Radial Grid Type                 RadialGrid  ... OptM3 with GC (2021)
Angular Grid (max. ang.)         AngularGrid ... 3 (Lebedev-194)
Angular grid pruning method      GridPruning ... 4 (adaptive)
Weight generation scheme         WeightScheme... mBecke (2022)
Basis function cutoff            BFCut       ... 1.0000e-11
Integration weight cutoff        WCut        ... 1.0000e-14
Partially contracted basis set               ... on
Rotationally invariant grid construction     ... off
Angular grids for H and He will be reduced by one unit

Total number of grid points                  ...    38183
Total number of batches                      ...      305
Average number of points per batch           ...      125
Average number of grid points per atom       ...     2727
UseSFitting                                  ... on
Grids setup in   0.7 sec
Initializing property integral containers    ... done (  0.0 sec)

SHARK setup successfully completed in   1.6 seconds

Maximum memory used throughout the entire STARTUP-calculation: 25.1 MB


           ************************************************************
           *        Program running with 8 parallel MPI-processes     *
           *              working on a common directory               *
           ************************************************************
-------------------------------------------------------------------------------
                                 ORCA GUESS
                   Start orbitals & Density for SCF / CASSCF
-------------------------------------------------------------------------------

------------
SCF SETTINGS
------------
Hamiltonian:
 Density Functional     Method          .... DFT(GTOs)
 Exchange Functional    Exchange        .... PBE
   PBE kappa parameter   XKappa         ....  0.804000
   PBE mue parameter    XMuePBE         ....  0.219520
 Correlation Functional Correlation     .... P86
 LDA part of GGA corr.  LDAOpt          .... VWN-5
 Gradients option       PostSCFGGA      .... off
 Hybrid DFT is turned on
   Fraction HF Exchange ScalHFX         ....  0.690000
   Scaling of DF-GGA-X  ScalDFX         ....  0.310000
   Scaling of DF-GGA-C  ScalDFC         ....  0.422400
   Scaling of DF-LDA-C  ScalLDAC        ....  0.422400
   Perturbative correction              ....  1.000000
 RI-approximation to the Coulomb term is turned on
   Number of AuxJ basis functions       .... 384
   RIJ-COSX (HFX calculated with COS-X)).... on


General Settings:
 Integral files         IntName         .... opt
 Hartree-Fock type      HFTyp           .... UHF
 Total Charge           Charge          ....    0
 Multiplicity           Mult            ....    2
 Number of Electrons    NEL             ....   57
 Basis Dimension        Dim             ....  309
 Nuclear Repulsion      ENuc            ....    282.1907460703 Eh

Convergence Acceleration:
 AO-DIIS                CNVDIIS         .... on
   Start iteration      DIISMaxIt       ....    12
   Startup error        DIISStart       ....  0.200000
   # of expansion vecs  DIISMaxEq       ....     5
   Bias factor          DIISBfac        ....   1.050
   Max. coefficient     DIISMaxC        ....  10.000
 MO-DIIS                CNVKDIIS        .... off
 Trust-Rad. Augm. Hess. CNVTRAH         .... auto
   Auto Start mean grad. ratio tolernc. ....  1.125000
   Auto Start start iteration           ....    50
   Auto Start num. interpolation iter.  ....    10
   Max. Number of Micro iterations      ....    24
   Max. Number of Macro iterations      .... Maxiter - #DIIS iter
   Number of Davidson start vectors     ....     2
   Converg. threshold    (grad. norm)   ....   1.000e-05
   Grad. Scal. Fac. for Micro threshold ....   0.100
   Minimum threshold for Micro iter.    ....   1.000e-02
   NR start threshold (gradient norm)   ....   1.000e-04
   Initial trust radius                 ....   0.400
   Minimum AH scaling param. (alpha)    ....   1.000
   Maximum AH scaling param. (alpha)    .... 1000.000
   Quad. conv. algorithm                .... NR
   White noise on init. David. guess    .... on
   Maximum white noise                  ....   0.010
   Pseudo random numbers                .... off
   Inactive MOs                         .... canonical
   Orbital update algorithm             .... Taylor
   Preconditioner                       .... Diag
   Full preconditioner red. dimension   ....   250
 SOSCF                 CNVSOSCF           .... on
   Start iteration     SOSCFMaxIt         ....   150
   Startup grad/error  SOSCFStart         ....  0.003300
   Hessian update      SOSCFHessUp        .... L-BFGS
   Autom. constraints  SOSCFAutoConstrain .... off
 Level Shifting         CNVShift        .... on
   Level shift para.    LevelShift      ....    0.2500
   Turn off err/grad.   ShiftErr        ....    0.0010
 Zerner damping         CNVZerner       .... off
 Static damping         CNVDamp         .... on
   Fraction old density DampFac         ....    0.7000
   Max. Damping (<1)    DampMax         ....    0.9800
   Min. Damping (>=0)   DampMin         ....    0.0000
   Turn off err/grad.   DampErr         ....    0.1000

SCF Procedure:
 Maximum # iterations   MaxIter         ....   125
 SCF integral mode      SCFMode         .... Direct
   Integral package                     .... SHARK and LIBINT hybrid scheme
 Reset frequency        DirectResetFreq ....    20
 Integral Threshold     Thresh          ....  2.500e-11 Eh
 Primitive CutOff       TCut            ....  2.500e-12 Eh

Convergence Tolerance:
 Convergence Check Mode ConvCheckMode   .... Total+1el-Energy
 Convergence forced     ConvForced      .... 0
 Energy Change          TolE            ....  1.000e-08 Eh
 1-El. energy change                    ....  1.000e-05 Eh
 Orbital Gradient       TolG            ....  1.000e-05
 Orbital Rotation angle TolX            ....  1.000e-05
 DIIS Error             TolErr          ....  5.000e-07

------------------------------
INITIAL GUESS: MODEL POTENTIAL
------------------------------
Loading Hartree-Fock densities                     ... done
Calculating cut-offs                               ... done
Initializing the effective Hamiltonian             ... done
Setting up the integral package (SHARK)            ... done
Starting the Coulomb interaction                   ... done (   0.1 sec)
Making the grid                                    ... done (   0.1 sec)
Mapping shells                                     ... done
Starting the XC term evaluation                    ... done (   0.0 sec)
  promolecular density results
     # of electrons  =     56.995938459
     EX              =    -58.340097933
     EC              =      0.020542840
     EX+EC           =    -58.319555093
Transforming the Hamiltonian                       ... done (   0.0 sec)
Diagonalizing the Hamiltonian                      ... done (   0.0 sec)
Back transforming the eigenvectors                 ... done (   0.0 sec)
Now organizing SCF variables                       ... done
                      ------------------
                      INITIAL GUESS DONE (   0.2 sec)
                      ------------------
             **** ENERGY FILE WAS UPDATED (opt.en.tmp) ****
Finished Guess after   0.8 sec
Maximum memory used throughout the entire GUESS-calculation: 17.0 MB


           ************************************************************
           *        Program running with 8 parallel MPI-processes     *
           *              working on a common directory               *
           ************************************************************

-------------------------------------------------------------------------------------------
                                      ORCA LEAN-SCF
                              memory conserving SCF solver
-------------------------------------------------------------------------------------------

----------------------------------------D-I-I-S--------------------------------------------
Iteration    Energy (Eh)           Delta-E    RMSDP     MaxDP     DIISErr   Damp  Time(sec)
-------------------------------------------------------------------------------------------
               ***  Starting incremental Fock matrix formation  ***
    1    -691.1788740860806683     0.00e+00  9.70e-04  1.59e-02  8.70e-02  0.700   1.6
    2    -691.2314512353401597    -5.26e-02  7.51e-04  1.11e-02  5.34e-02  0.700   0.9
                               ***Turning on AO-DIIS***
    3    -691.2616963792002025    -3.02e-02  4.55e-04  6.50e-03  2.88e-02  0.700   0.9
    4    -691.2807565408933215    -1.91e-02  1.11e-03  1.53e-02  1.89e-02  0.000   0.8
    5    -691.3241697503701744    -4.34e-02  2.27e-04  4.58e-03  4.74e-03  0.000   0.9
    6    -691.3248584787759228    -6.89e-04  1.63e-04  3.64e-03  3.43e-03  0.000   0.8
                              *** Initializing SOSCF ***
---------------------------------------S-O-S-C-F--------------------------------------
Iteration    Energy (Eh)           Delta-E    RMSDP     MaxDP     MaxGrad    Time(sec)
--------------------------------------------------------------------------------------
    7    -691.3252220540640565    -3.64e-04  1.27e-04  2.88e-03  2.28e-03     0.9
               *** Restarting incremental Fock matrix formation ***
    8    -691.3253943871850424    -1.72e-04  1.06e-04  2.20e-03  3.99e-03     1.3
    9    -691.3255090353475225    -1.15e-04  2.43e-04  4.44e-03  1.82e-03     1.1
   10    -691.3255938186664480    -8.48e-05  6.05e-05  6.61e-04  6.56e-04     1.1
   11    -691.3256099197005824    -1.61e-05  1.46e-05  2.50e-04  3.00e-04     1.1
   12    -691.3256112432512737    -1.32e-06  1.04e-05  1.79e-04  8.37e-05     1.0
   13    -691.3256116804276417    -4.37e-07  3.54e-06  5.74e-05  5.55e-05     1.0
   14    -691.3256117415993458    -6.12e-08  2.50e-06  5.27e-05  3.31e-05     1.0
   15    -691.3256117680191437    -2.64e-08  1.17e-06  3.26e-05  1.57e-05     0.9
   16    -691.3256117758699020    -7.85e-09  1.19e-06  3.46e-05  9.55e-06     0.8
                 **** Energy Check signals convergence ****

               *****************************************************
               *                     SUCCESS                       *
               *           SCF CONVERGED AFTER  16 CYCLES          *
               *****************************************************

Recomputing exchange energy using gridx3       ... done (    1.837 sec)
Old exchange energy                            :    -40.951637463 Eh
New exchange energy                            :    -40.951625159 Eh
Exchange energy change after final integration :      0.000012304 Eh
Total energy after final integration           :   -691.325599471 Eh
             **** ENERGY FILE WAS UPDATED (opt.en.tmp) ****

----------------
TOTAL SCF ENERGY
----------------

Total Energy       :       -691.32559947108234 Eh          -18811.92594 eV

Components:
Nuclear Repulsion  :        282.19074607034440 Eh            7678.80058 eV
Electronic Energy  :       -973.51635784592418 Eh          -26490.72686 eV
One Electron Energy:      -1509.09335860549845 Eh          -41064.51797 eV
Two Electron Energy:        535.57700075957428 Eh           14573.79111 eV

Virial components:
Potential Energy   :      -1381.74317324843264 Eh          -37599.14325 eV
Kinetic Energy     :        690.41757377735030 Eh           18787.21731 eV
Virial Ratio       :          2.00131518334443

DFT components:
N(Alpha)           :       28.999986857919 electrons
N(Beta)            :       27.999983561862 electrons
N(Total)           :       56.999970419781 electrons
E(X)               :      -18.309216792173 Eh       
E(C)               :       -0.929991088708 Eh       
E(XC)              :      -19.239207880882 Eh       

---------------
SCF CONVERGENCE
---------------

  Last Energy change         ...    7.8508e-09  Tolerance :   1.0000e-08
  Last MAX-Density change    ...    3.4599e-05  Tolerance :   1.0000e-07
  Last RMS-Density change    ...    1.1879e-06  Tolerance :   5.0000e-09
  Last DIIS Error            ...    2.2811e-03  Tolerance :   5.0000e-07
  Last Orbital Gradient      ...    9.5530e-06  Tolerance :   1.0000e-05
  Last Orbital Rotation      ...    1.1925e-04  Tolerance :   1.0000e-05


----------------------
UHF SPIN CONTAMINATION
----------------------

Warning: in a DFT calculation there is little theoretical justification to 
         calculate <S**2> as in Hartree-Fock theory. We will do it anyways
         but you should keep in mind that the values have only limited relevance

Expectation value of <S**2>     :     0.771074
Ideal value S*(S+1) for S=0.5   :     0.750000
Deviation                       :     0.021074

----------------
ORBITAL ENERGIES
----------------
                 SPIN UP ORBITALS
  NO   OCC          E(Eh)            E(eV) 
   0   1.0000    -103.541835     -2817.5166 
   1   1.0000     -20.047896      -545.5310 
   2   1.0000     -10.917413      -297.0779 
   3   1.0000     -10.898698      -296.5686 
   4   1.0000     -10.833865      -294.8045 
   5   1.0000     -10.829855      -294.6953 
   6   1.0000     -10.127048      -275.5710 
   7   1.0000      -7.713901      -209.9059 
   8   1.0000      -7.697306      -209.4543 
   9   1.0000      -7.697274      -209.4535 
  10   1.0000      -1.324931       -36.0532 
  11   1.0000      -0.987137       -26.8614 
  12   1.0000      -0.946462       -25.7545 
  13   1.0000      -0.934946       -25.4412 
  14   1.0000      -0.812633       -22.1129 
  15   1.0000      -0.730123       -19.8677 
  16   1.0000      -0.671370       -18.2689 
  17   1.0000      -0.591383       -16.0924 
  18   1.0000      -0.575065       -15.6483 
  19   1.0000      -0.548824       -14.9343 
  20   1.0000      -0.526136       -14.3169 
  21   1.0000      -0.523367       -14.2415 
  22   1.0000      -0.498036       -13.5523 
  23   1.0000      -0.482770       -13.1368 
  24   1.0000      -0.441828       -12.0227 
  25   1.0000      -0.416171       -11.3246 
  26   1.0000      -0.402726       -10.9587 
  27   1.0000      -0.400620       -10.9014 
  28   1.0000      -0.357052        -9.7159 
  29   0.0000       0.093588         2.5467 
  30   0.0000       0.123713         3.3664 
  31   0.0000       0.134723         3.6660 
  32   0.0000       0.152514         4.1501 
  33   0.0000       0.157641         4.2896 
  34   0.0000       0.165632         4.5071 
  35   0.0000       0.175716         4.7815 
  36   0.0000       0.187819         5.1108 
  37   0.0000       0.202188         5.5018 
  38   0.0000       0.209273         5.6946 
  39   0.0000       0.230890         6.2828 

                 SPIN DOWN ORBITALS
  NO   OCC          E(Eh)            E(eV) 
   0   1.0000    -103.534573     -2817.3190 
   1   1.0000     -20.043803      -545.4196 
   2   1.0000     -10.907387      -296.8051 
   3   1.0000     -10.898756      -296.5702 
   4   1.0000     -10.833465      -294.7936 
   5   1.0000     -10.829893      -294.6964 
   6   1.0000     -10.120363      -275.3891 
   7   1.0000      -7.693421      -209.3486 
   8   1.0000      -7.693384      -209.3476 
   9   1.0000      -7.686601      -209.1631 
  10   1.0000      -1.315141       -35.7868 
  11   1.0000      -0.944925       -25.7127 
  12   1.0000      -0.936728       -25.4897 
  13   1.0000      -0.916138       -24.9294 
  14   1.0000      -0.799904       -21.7665 
  15   1.0000      -0.711339       -19.3565 
  16   1.0000      -0.640942       -17.4409 
  17   1.0000      -0.583973       -15.8907 
  18   1.0000      -0.564164       -15.3517 
  19   1.0000      -0.545484       -14.8434 
  20   1.0000      -0.521416       -14.1885 
  21   1.0000      -0.515143       -14.0178 
  22   1.0000      -0.478457       -13.0195 
  23   1.0000      -0.465290       -12.6612 
  24   1.0000      -0.412053       -11.2125 
  25   1.0000      -0.390397       -10.6232 
  26   1.0000      -0.389400       -10.5961 
  27   1.0000      -0.387560       -10.5461 
  28   0.0000      -0.076874        -2.0918 
  29   0.0000       0.094305         2.5662 
  30   0.0000       0.124180         3.3791 
  31   0.0000       0.136575         3.7164 
  32   0.0000       0.154368         4.2006 
  33   0.0000       0.158154         4.3036 
  34   0.0000       0.168063         4.5732 
  35   0.0000       0.176729         4.8090 
  36   0.0000       0.191143         5.2013 
  37   0.0000       0.204793         5.5727 
  38   0.0000       0.211388         5.7522 
*Only the first 10 virtual orbitals were printed.

                    ********************************
                    * MULLIKEN POPULATION ANALYSIS *
                    ********************************

--------------------------------------------
MULLIKEN ATOMIC CHARGES AND SPIN POPULATIONS
--------------------------------------------
   0 C :    0.116104    0.006792
   1 C :   -0.234691   -0.000955
   2 C :    0.115047    0.329040
   3 H :    0.109269    0.000380
   4 O :   -0.370524    0.086758
   5 C :   -0.222831    0.007232
   6 H :    0.162777   -0.086165
   7 H :    0.083185   -0.000217
   8 H :    0.096989    0.002643
   9 H :    0.087009   -0.000171
  10 H :    0.109289    0.001901
  11 H :    0.096168   -0.000744
  12 H :    0.084318    0.022554
  13 Cl:   -0.232109    0.630953
Sum of atomic charges         :    0.0000000
Sum of atomic spin populations:    1.0000000

-----------------------------------------------------
MULLIKEN REDUCED ORBITAL CHARGES AND SPIN POPULATIONS
-----------------------------------------------------
CHARGE
  0 C s       :     3.096166  s :     3.096166
      pz      :     0.692901  p :     2.598839
      px      :     0.931134
      py      :     0.974805
      dz2     :     0.042151  d :     0.174972
      dxz     :     0.032745
      dyz     :     0.022325
      dx2y2   :     0.033717
      dxy     :     0.044034
      f0      :     0.002298  f :     0.013920
      f+1     :     0.002350
      f-1     :     0.002295
      f+2     :     0.001839
      f-2     :     0.001820
      f+3     :     0.001573
      f-3     :     0.001743

  1 C s       :     3.155444  s :     3.155444
      pz      :     1.037659  p :     2.999932
      px      :     0.905574
      py      :     1.056699
      dz2     :     0.020821  d :     0.075572
      dxz     :     0.011242
      dyz     :     0.007669
      dx2y2   :     0.014295
      dxy     :     0.021546
      f0      :     0.000616  f :     0.003743
      f+1     :     0.000622
      f-1     :     0.000202
      f+2     :     0.000514
      f-2     :     0.000327
      f+3     :     0.000806
      f-3     :     0.000656

  2 C s       :     3.151540  s :     3.151540
      pz      :     0.769745  p :     2.531337
      px      :     0.863381
      py      :     0.898211
      dz2     :     0.040294  d :     0.186014
      dxz     :     0.024287
      dyz     :     0.041134
      dx2y2   :     0.046296
      dxy     :     0.034003
      f0      :     0.002350  f :     0.016063
      f+1     :     0.002053
      f-1     :     0.002295
      f+2     :     0.002954
      f-2     :     0.002203
      f+3     :     0.002116
      f-3     :     0.002092

  3 H s       :     0.847511  s :     0.847511
      pz      :     0.006827  p :     0.040853
      px      :     0.011777
      py      :     0.022249
      dz2     :     0.000179  d :     0.002367
      dxz     :     0.000118
      dyz     :     0.000707
      dx2y2   :     0.000778
      dxy     :     0.000585

  4 O s       :     3.858270  s :     3.858270
      pz      :     1.312705  p :     4.465533
      px      :     1.603967
      py      :     1.548861
      dz2     :     0.014324  d :     0.044485
      dxz     :     0.011472
      dyz     :     0.012997
      dx2y2   :     0.002760
      dxy     :     0.002931
      f0      :     0.000657  f :     0.002236
      f+1     :     0.000418
      f-1     :     0.000427
      f+2     :     0.000238
      f-2     :     0.000353
      f+3     :     0.000070
      f-3     :     0.000071

  5 C s       :     3.152065  s :     3.152065
      pz      :     1.063570  p :     2.991366
      px      :     1.051087
      py      :     0.876709
      dz2     :     0.014428  d :     0.075702
      dxz     :     0.012915
      dyz     :     0.014877
      dx2y2   :     0.017636
      dxy     :     0.015845
      f0      :     0.000290  f :     0.003698
      f+1     :     0.000476
      f-1     :     0.000643
      f+2     :     0.000566
      f-2     :     0.000237
      f+3     :     0.000746
      f-3     :     0.000740

  6 H s       :     0.750810  s :     0.750810
      pz      :     0.013099  p :     0.082581
      px      :     0.052397
      py      :     0.017086
      dz2     :     0.000520  d :     0.003832
      dxz     :     0.000844
      dyz     :     0.000055
      dx2y2   :     0.001367
      dxy     :     0.001046

  7 H s       :     0.876800  s :     0.876800
      pz      :     0.009110  p :     0.038049
      px      :     0.010719
      py      :     0.018220
      dz2     :     0.000193  d :     0.001966
      dxz     :     0.000099
      dyz     :     0.000543
      dx2y2   :     0.000549
      dxy     :     0.000581

  8 H s       :     0.863916  s :     0.863916
      pz      :     0.011812  p :     0.037174
      px      :     0.012552
      py      :     0.012809
      dz2     :     0.000399  d :     0.001921
      dxz     :     0.000291
      dyz     :     0.000308
      dx2y2   :     0.000564
      dxy     :     0.000359

  9 H s       :     0.872703  s :     0.872703
      pz      :     0.020724  p :     0.038360
      px      :     0.008677
      py      :     0.008959
      dz2     :     0.000558  d :     0.001929
      dxz     :     0.000711
      dyz     :     0.000583
      dx2y2   :     0.000045
      dxy     :     0.000032

 10 H s       :     0.851299  s :     0.851299
      pz      :     0.015002  p :     0.037471
      px      :     0.010371
      py      :     0.012098
      dz2     :     0.000572  d :     0.001941
      dxz     :     0.000328
      dyz     :     0.000368
      dx2y2   :     0.000418
      dxy     :     0.000256

 11 H s       :     0.863205  s :     0.863205
      pz      :     0.018449  p :     0.038671
      px      :     0.011289
      py      :     0.008932
      dz2     :     0.000577  d :     0.001955
      dxz     :     0.000466
      dyz     :     0.000578
      dx2y2   :     0.000190
      dxy     :     0.000144

 12 H s       :     0.875707  s :     0.875707
      pz      :     0.008932  p :     0.038014
      px      :     0.019678
      py      :     0.009404
      dz2     :     0.000151  d :     0.001961
      dxz     :     0.000621
      dyz     :     0.000048
      dx2y2   :     0.000501
      dxy     :     0.000640

 13 Cls       :     5.956695  s :     5.956695
      pz      :     3.970244  p :    11.252106
      px      :     3.348373
      py      :     3.933489
      dz2     :     0.004575  d :     0.021914
      dxz     :     0.001671
      dyz     :     0.000147
      dx2y2   :     0.011120
      dxy     :     0.004401
      f0      :     0.000099  f :     0.001394
      f+1     :     0.000314
      f-1     :     0.000032
      f+2     :     0.000128
      f-2     :     0.000052
      f+3     :     0.000379
      f-3     :     0.000390


SPIN
  0 C s       :     0.002629  s :     0.002629
      pz      :    -0.003117  p :     0.001100
      px      :     0.005262
      py      :    -0.001045
      dz2     :    -0.000378  d :     0.002576
      dxz     :    -0.000360
      dyz     :     0.000112
      dx2y2   :     0.002372
      dxy     :     0.000830
      f0      :     0.000001  f :     0.000487
      f+1     :     0.000082
      f-1     :     0.000069
      f+2     :    -0.000031
      f-2     :     0.000025
      f+3     :     0.000142
      f-3     :     0.000199

  1 C s       :    -0.000473  s :    -0.000473
      pz      :    -0.000884  p :    -0.001082
      px      :     0.000257
      py      :    -0.000454
      dz2     :     0.000330  d :     0.000581
      dxz     :    -0.000048
      dyz     :    -0.000016
      dx2y2   :    -0.000071
      dxy     :     0.000386
      f0      :     0.000001  f :     0.000019
      f+1     :     0.000008
      f-1     :    -0.000001
      f+2     :     0.000002
      f-2     :     0.000010
      f+3     :    -0.000003
      f-3     :    -0.000000

  2 C s       :     0.032143  s :     0.032143
      pz      :     0.012406  p :     0.294200
      px      :     0.254006
      py      :     0.027788
      dz2     :     0.000428  d :     0.002816
      dxz     :    -0.001103
      dyz     :    -0.000490
      dx2y2   :     0.003008
      dxy     :     0.000972
      f0      :     0.000071  f :    -0.000118
      f+1     :     0.000087
      f-1     :     0.000069
      f+2     :    -0.000112
      f-2     :    -0.000114
      f+3     :    -0.000049
      f-3     :    -0.000070

  3 H s       :    -0.000055  s :    -0.000055
      pz      :     0.000025  p :     0.000433
      px      :    -0.000053
      py      :     0.000460
      dz2     :     0.000001  d :     0.000002
      dxz     :    -0.000002
      dyz     :    -0.000000
      dx2y2   :     0.000002
      dxy     :     0.000001

  4 O s       :     0.004848  s :     0.004848
      pz      :     0.000596  p :     0.081911
      px      :     0.072966
      py      :     0.008349
      dz2     :     0.000054  d :     0.000001
      dxz     :    -0.000430
      dyz     :     0.000061
      dx2y2   :     0.000185
      dxy     :     0.000131
      f0      :     0.000005  f :    -0.000002
      f+1     :    -0.000017
      f-1     :     0.000001
      f+2     :     0.000018
      f-2     :    -0.000001
      f+3     :    -0.000003
      f-3     :    -0.000005

  5 C s       :    -0.001750  s :    -0.001750
      pz      :     0.000525  p :     0.003938
      px      :    -0.003868
      py      :     0.007281
      dz2     :     0.000059  d :     0.004661
      dxz     :    -0.000052
      dyz     :     0.000283
      dx2y2   :     0.000756
      dxy     :     0.003615
      f0      :     0.000004  f :     0.000383
      f+1     :     0.000015
      f-1     :     0.000024
      f+2     :     0.000021
      f-2     :     0.000045
      f+3     :     0.000208
      f-3     :     0.000065

  6 H s       :    -0.108304  s :    -0.108304
      pz      :     0.000516  p :     0.021695
      px      :     0.019599
      py      :     0.001579
      dz2     :     0.000111  d :     0.000445
      dxz     :     0.000020
      dyz     :     0.000001
      dx2y2   :     0.000225
      dxy     :     0.000088

  7 H s       :    -0.000220  s :    -0.000220
      pz      :    -0.000002  p :     0.000002
      px      :     0.000030
      py      :    -0.000026
      dz2     :     0.000001  d :     0.000001
      dxz     :    -0.000000
      dyz     :    -0.000000
      dx2y2   :    -0.000000
      dxy     :     0.000001

  8 H s       :     0.002559  s :     0.002559
      pz      :     0.000012  p :     0.000080
      px      :     0.000056
      py      :     0.000012
      dz2     :     0.000000  d :     0.000004
      dxz     :     0.000000
      dyz     :     0.000002
      dx2y2   :     0.000002
      dxy     :    -0.000001

  9 H s       :    -0.000108  s :    -0.000108
      pz      :    -0.000025  p :    -0.000061
      px      :    -0.000032
      py      :    -0.000004
      dz2     :     0.000000  d :    -0.000002
      dxz     :    -0.000001
      dyz     :    -0.000000
      dx2y2   :     0.000000
      dxy     :    -0.000000

 10 H s       :     0.001870  s :     0.001870
      pz      :     0.000020  p :     0.000022
      px      :     0.000084
      py      :    -0.000082
      dz2     :    -0.000000  d :     0.000009
      dxz     :     0.000001
      dyz     :     0.000004
      dx2y2   :     0.000000
      dxy     :     0.000005

 11 H s       :    -0.000827  s :    -0.000827
      pz      :    -0.000009  p :     0.000071
      px      :     0.000051
      py      :     0.000030
      dz2     :     0.000001  d :     0.000012
      dxz     :    -0.000001
      dyz     :     0.000006
      dx2y2   :    -0.000001
      dxy     :     0.000006

 12 H s       :     0.022288  s :     0.022288
      pz      :     0.000051  p :     0.000218
      px      :     0.000085
      py      :     0.000081
      dz2     :    -0.000002  d :     0.000048
      dxz     :     0.000011
      dyz     :    -0.000002
      dx2y2   :     0.000025
      dxy     :     0.000016

 13 Cls       :     0.015027  s :     0.015027
      pz      :     0.012135  p :     0.620426
      px      :     0.564380
      py      :     0.043911
      dz2     :    -0.001180  d :    -0.004978
      dxz     :    -0.000140
      dyz     :    -0.000006
      dx2y2   :    -0.002792
      dxy     :    -0.000860
      f0      :     0.000055  f :     0.000478
      f+1     :     0.000066
      f-1     :     0.000013
      f+2     :     0.000073
      f-2     :     0.000032
      f+3     :     0.000121
      f-3     :     0.000118



                     *******************************
                     * LOEWDIN POPULATION ANALYSIS *
                     *******************************

-------------------------------------------
LOEWDIN ATOMIC CHARGES AND SPIN POPULATIONS
-------------------------------------------
   0 C :   -0.075664    0.008672
   1 C :    0.019089    0.001917
   2 C :   -0.159528    0.229989
   3 H :    0.019208   -0.001599
   4 O :    0.194632    0.084208
   5 C :    0.027334    0.026185
   6 H :   -0.157401    0.099746
   7 H :    0.016308   -0.000121
   8 H :    0.019883    0.001569
   9 H :    0.020809    0.000012
  10 H :    0.025449    0.000680
  11 H :    0.024012   -0.000776
  12 H :    0.018603    0.013379
  13 Cl:    0.007266    0.536139

----------------------------------------------------
LOEWDIN REDUCED ORBITAL CHARGES AND SPIN POPULATIONS
----------------------------------------------------
CHARGE
  0 C s       :     2.710370  s :     2.710370
      pz      :     0.727278  p :     2.697916
      px      :     0.987552
      py      :     0.983086
      dz2     :     0.135662  d :     0.586475
      dxz     :     0.110345
      dyz     :     0.086670
      dx2y2   :     0.118837
      dxy     :     0.134961
      f0      :     0.016418  f :     0.080903
      f+1     :     0.012452
      f-1     :     0.013734
      f+2     :     0.008234
      f-2     :     0.011677
      f+3     :     0.008234
      f-3     :     0.010153

  1 C s       :     2.698083  s :     2.698083
      pz      :     0.998544  p :     2.958383
      px      :     0.952836
      py      :     1.007003
      dz2     :     0.078194  d :     0.294122
      dxz     :     0.047955
      dyz     :     0.024797
      dx2y2   :     0.061293
      dxy     :     0.081884
      f0      :     0.004332  f :     0.030323
      f+1     :     0.004019
      f-1     :     0.002437
      f+2     :     0.004736
      f-2     :     0.004831
      f+3     :     0.005507
      f-3     :     0.004460

  2 C s       :     2.720915  s :     2.720915
      pz      :     0.825002  p :     2.673447
      px      :     0.862560
      py      :     0.985885
      dz2     :     0.137716  d :     0.666992
      dxz     :     0.098525
      dyz     :     0.146965
      dx2y2   :     0.164675
      dxy     :     0.119111
      f0      :     0.015584  f :     0.098175
      f+1     :     0.015330
      f-1     :     0.013844
      f+2     :     0.015096
      f-2     :     0.015889
      f+3     :     0.011343
      f-3     :     0.011089

  3 H s       :     0.808001  s :     0.808001
      pz      :     0.029328  p :     0.143964
      px      :     0.046906
      py      :     0.067730
      dz2     :     0.003141  d :     0.028827
      dxz     :     0.001418
      dyz     :     0.006064
      dx2y2   :     0.008967
      dxy     :     0.009238

  4 O s       :     3.362019  s :     3.362019
      pz      :     1.379628  p :     4.348443
      px      :     1.509017
      py      :     1.459798
      dz2     :     0.033859  d :     0.088493
      dxz     :     0.018635
      dyz     :     0.018874
      dx2y2   :     0.007964
      dxy     :     0.009160
      f0      :     0.002177  f :     0.006413
      f+1     :     0.001038
      f-1     :     0.000918
      f+2     :     0.000888
      f-2     :     0.001107
      f+3     :     0.000115
      f-3     :     0.000171

  5 C s       :     2.698522  s :     2.698522
      pz      :     1.007394  p :     2.952737
      px      :     1.005866
      py      :     0.939477
      dz2     :     0.054290  d :     0.291048
      dxz     :     0.039408
      dyz     :     0.063858
      dx2y2   :     0.077780
      dxy     :     0.055711
      f0      :     0.002427  f :     0.030360
      f+1     :     0.004680
      f-1     :     0.004851
      f+2     :     0.003514
      f-2     :     0.004060
      f+3     :     0.005403
      f-3     :     0.005425

  6 H s       :     0.775099  s :     0.775099
      pz      :     0.043867  p :     0.349956
      px      :     0.246363
      py      :     0.059727
      dz2     :     0.003990  d :     0.032345
      dxz     :     0.007646
      dyz     :     0.000520
      dx2y2   :     0.010841
      dxy     :     0.009349

  7 H s       :     0.807471  s :     0.807471
      pz      :     0.039437  p :     0.146970
      px      :     0.041562
      py      :     0.065971
      dz2     :     0.003051  d :     0.029252
      dxz     :     0.001337
      dyz     :     0.008114
      dx2y2   :     0.008177
      dxy     :     0.008573

  8 H s       :     0.803893  s :     0.803893
      pz      :     0.045850  p :     0.147279
      px      :     0.049102
      py      :     0.052328
      dz2     :     0.005864  d :     0.028945
      dxz     :     0.004564
      dyz     :     0.004699
      dx2y2   :     0.007857
      dxy     :     0.005961

  9 H s       :     0.803176  s :     0.803176
      pz      :     0.067972  p :     0.147199
      px      :     0.037997
      py      :     0.041230
      dz2     :     0.009527  d :     0.028816
      dxz     :     0.009063
      dyz     :     0.009250
      dx2y2   :     0.000603
      dxy     :     0.000373

 10 H s       :     0.798630  s :     0.798630
      pz      :     0.054138  p :     0.146845
      px      :     0.045095
      py      :     0.047612
      dz2     :     0.008014  d :     0.029076
      dxz     :     0.005369
      dyz     :     0.006116
      dx2y2   :     0.005493
      dxy     :     0.004084

 11 H s       :     0.800637  s :     0.800637
      pz      :     0.063187  p :     0.146337
      px      :     0.045522
      py      :     0.037627
      dz2     :     0.009524  d :     0.029014
      dxz     :     0.007666
      dyz     :     0.007425
      dx2y2   :     0.002583
      dxy     :     0.001815

 12 H s       :     0.804187  s :     0.804187
      pz      :     0.039431  p :     0.148232
      px      :     0.068566
      py      :     0.040235
      dz2     :     0.002419  d :     0.028977
      dxz     :     0.009380
      dyz     :     0.000568
      dx2y2   :     0.007761
      dxy     :     0.008849

 13 Cls       :     5.806538  s :     5.806538
      pz      :     3.952422  p :    11.143978
      px      :     3.279414
      py      :     3.912143
      dz2     :     0.008304  d :     0.039433
      dxz     :     0.002507
      dyz     :     0.000213
      dx2y2   :     0.020832
      dxy     :     0.007577
      f0      :     0.000138  f :     0.002785
      f+1     :     0.000717
      f-1     :     0.000057
      f+2     :     0.000173
      f-2     :     0.000067
      f+3     :     0.000792
      f-3     :     0.000841


SPIN
  0 C s       :    -0.000391  s :    -0.000391
      pz      :    -0.001518  p :    -0.002188
      px      :    -0.000652
      py      :    -0.000018
      dz2     :     0.000457  d :     0.008211
      dxz     :    -0.000593
      dyz     :     0.000756
      dx2y2   :     0.006804
      dxy     :     0.000788
      f0      :     0.000050  f :     0.003040
      f+1     :     0.000831
      f-1     :     0.000423
      f+2     :     0.000017
      f-2     :     0.000038
      f+3     :     0.000507
      f-3     :     0.001173

  1 C s       :    -0.000312  s :    -0.000312
      pz      :    -0.000185  p :     0.000352
      px      :     0.000728
      py      :    -0.000191
      dz2     :     0.001073  d :     0.001786
      dxz     :     0.000174
      dyz     :     0.000034
      dx2y2   :    -0.000015
      dxy     :     0.000521
      f0      :    -0.000005  f :     0.000091
      f+1     :     0.000044
      f-1     :    -0.000000
      f+2     :     0.000018
      f-2     :     0.000027
      f+3     :    -0.000003
      f-3     :     0.000010

  2 C s       :     0.017907  s :     0.017907
      pz      :     0.009108  p :     0.213666
      px      :     0.183717
      py      :     0.020841
      dz2     :    -0.001492  d :    -0.002053
      dxz     :    -0.001142
      dyz     :     0.000629
      dx2y2   :     0.001620
      dxy     :    -0.001669
      f0      :     0.000662  f :     0.000469
      f+1     :    -0.000365
      f-1     :     0.000607
      f+2     :     0.000168
      f-2     :    -0.000069
      f+3     :    -0.000236
      f-3     :    -0.000297

  3 H s       :    -0.000616  s :    -0.000616
      pz      :    -0.000261  p :    -0.000836
      px      :    -0.000108
      py      :    -0.000467
      dz2     :    -0.000006  d :    -0.000147
      dxz     :    -0.000013
      dyz     :    -0.000044
      dx2y2   :    -0.000058
      dxy     :    -0.000026

  4 O s       :     0.002878  s :     0.002878
      pz      :     0.001756  p :     0.075735
      px      :     0.065979
      py      :     0.008000
      dz2     :     0.001139  d :     0.005156
      dxz     :     0.001252
      dyz     :     0.000775
      dx2y2   :     0.001548
      dxy     :     0.000442
      f0      :     0.000131  f :     0.000439
      f+1     :     0.000001
      f-1     :     0.000066
      f+2     :     0.000170
      f-2     :     0.000017
      f+3     :     0.000019
      f-3     :     0.000035

  5 C s       :     0.000539  s :     0.000539
      pz      :     0.001043  p :     0.005903
      px      :    -0.001338
      py      :     0.006198
      dz2     :     0.001191  d :     0.017554
      dxz     :     0.000380
      dyz     :     0.000966
      dx2y2   :     0.001603
      dxy     :     0.013414
      f0      :     0.000037  f :     0.002189
      f+1     :     0.000028
      f-1     :     0.000101
      f+2     :     0.000071
      f-2     :     0.000226
      f+3     :     0.001544
      f-3     :     0.000181

  6 H s       :    -0.020861  s :    -0.020861
      pz      :     0.002508  p :     0.116051
      px      :     0.105239
      py      :     0.008304
      dz2     :     0.000888  d :     0.004556
      dxz     :     0.000460
      dyz     :     0.000038
      dx2y2   :     0.002223
      dxy     :     0.000946

  7 H s       :    -0.000081  s :    -0.000081
      pz      :    -0.000030  p :    -0.000031
      px      :    -0.000019
      py      :     0.000017
      dz2     :     0.000000  d :    -0.000009
      dxz     :    -0.000001
      dyz     :    -0.000007
      dx2y2   :    -0.000000
      dxy     :    -0.000001

  8 H s       :     0.001542  s :     0.001542
      pz      :    -0.000008  p :     0.000030
      px      :     0.000057
      py      :    -0.000019
      dz2     :    -0.000010  d :    -0.000003
      dxz     :    -0.000001
      dyz     :     0.000008
      dx2y2   :     0.000011
      dxy     :    -0.000011

  9 H s       :     0.000162  s :     0.000162
      pz      :    -0.000045  p :    -0.000150
      px      :    -0.000076
      py      :    -0.000029
      dz2     :     0.000003  d :     0.000000
      dxz     :     0.000002
      dyz     :    -0.000003
      dx2y2   :    -0.000000
      dxy     :    -0.000002

 10 H s       :     0.000866  s :     0.000866
      pz      :    -0.000008  p :    -0.000266
      px      :    -0.000070
      py      :    -0.000188
      dz2     :    -0.000031  d :     0.000079
      dxz     :     0.000018
      dyz     :     0.000048
      dx2y2   :     0.000027
      dxy     :     0.000017

 11 H s       :    -0.000631  s :    -0.000631
      pz      :    -0.000000  p :    -0.000197
      px      :    -0.000058
      py      :    -0.000139
      dz2     :     0.000021  d :     0.000052
      dxz     :    -0.000001
      dyz     :    -0.000002
      dx2y2   :    -0.000001
      dxy     :     0.000035

 12 H s       :     0.011585  s :     0.011585
      pz      :     0.000106  p :     0.001617
      px      :    -0.000126
      py      :     0.001638
      dz2     :    -0.000014  d :     0.000176
      dxz     :     0.000020
      dyz     :     0.000003
      dx2y2   :     0.000082
      dxy     :     0.000085

 13 Cls       :     0.001177  s :     0.001177
      pz      :     0.010418  p :     0.535393
      px      :     0.486567
      py      :     0.038408
      dz2     :    -0.000301  d :    -0.000912
      dxz     :     0.000017
      dyz     :     0.000013
      dx2y2   :    -0.000545
      dxy     :    -0.000096
      f0      :     0.000032  f :     0.000481
      f+1     :     0.000107
      f-1     :     0.000011
      f+2     :     0.000039
      f-2     :     0.000018
      f+3     :     0.000134
      f-3     :     0.000141



                      *****************************
                      * MAYER POPULATION ANALYSIS *
                      *****************************

  NA   - Mulliken gross atomic population
  ZA   - Total nuclear charge
  QA   - Mulliken gross atomic charge
  VA   - Mayer's total valence
  BVA  - Mayer's bonded valence
  FA   - Mayer's free valence

  ATOM       NA         ZA         QA         VA         BVA        FA
  0 C      5.8839     6.0000     0.1161     3.8534     3.8530     0.0003
  1 C      6.2347     6.0000    -0.2347     3.9483     3.9483     0.0000
  2 C      5.8850     6.0000     0.1150     3.9038     3.7794     0.1244
  3 H      0.8907     1.0000     0.1093     1.0084     1.0084     0.0000
  4 O      8.3705     8.0000    -0.3705     2.0133     2.0039     0.0093
  5 C      6.2228     6.0000    -0.2228     3.9484     3.9475     0.0009
  6 H      0.8372     1.0000     0.1628     1.1155     1.0953     0.0203
  7 H      0.9168     1.0000     0.0832     1.0093     1.0093     0.0000
  8 H      0.9030     1.0000     0.0970     1.0023     1.0023     0.0000
  9 H      0.9130     1.0000     0.0870     1.0081     1.0081     0.0000
 10 H      0.8907     1.0000     0.1093     1.0034     1.0034     0.0000
 11 H      0.9038     1.0000     0.0962     1.0127     1.0127     0.0000
 12 H      0.9157     1.0000     0.0843     1.0062     1.0056     0.0006
 13 Cl    17.2321    17.0000    -0.2321     1.0495     0.6374     0.4122

  Mayer bond orders larger than 0.100000
B(  0-C ,  1-C ) :   0.9513 B(  0-C ,  2-C ) :   1.0278 B(  0-C ,  3-H ) :   0.9844 
[...]
      3       0.026848   0.034597  -0.000657   0.009106  -0.002531   0.001926
      4       0.007340   0.020418   0.026654  -0.077061   0.015176  -0.035050
      5       0.014692  -0.082789   0.002686  -0.014749   0.004615  -0.009322
      6       0.000181  -0.000427   0.002021   0.000082  -0.000448   0.002071
      7       0.000061  -0.000397  -0.000187  -0.000230   0.000759   0.001494
      8      -0.000287  -0.000272  -0.000113   0.000752   0.001203  -0.001224
      9      -0.003103   0.009215  -0.031331   0.172628  -0.037607  -0.413763
     10       0.008669  -0.017638   0.063404  -0.344508   0.073665   0.811830
     11       0.002078   0.000110   0.005071  -0.027143   0.005697   0.061956
     12      -0.000029   0.000201  -0.000286   0.000356   0.000152  -0.001124
     13       0.000084   0.000205  -0.000080   0.000311   0.000321   0.000120
     14      -0.000105   0.000634   0.000138  -0.000039  -0.000661   0.000591
     15       0.011907  -0.003432   0.085608   0.023098  -0.017792   0.004783
     16      -0.036248  -0.000211   0.016769   0.007119   0.018204   0.000376
     17       0.007248   0.001567   0.009003   0.020882   0.087415   0.000491
     18      -0.003958  -0.000313  -0.005893  -0.001065   0.001328  -0.002527
     19       0.000019   0.000027   0.002433   0.000984  -0.001128  -0.002555
     20       0.001649   0.000655   0.000413   0.000717  -0.000543  -0.001004
     21      -0.091830  -0.018012   0.088442  -0.279165   0.055948  -0.129803
     22       0.245281   0.068670  -0.217802   0.693554  -0.141141   0.313647
     23       0.038490  -0.008093  -0.033294   0.102900  -0.020609   0.045424
     24      -0.217249  -0.411889  -0.084964   0.186699  -0.029447   0.086384
     25      -0.247753  -0.470712  -0.089645   0.194599  -0.029993   0.086513
     26       0.182049   0.321882   0.069726  -0.155797   0.025130  -0.068926
     27      -0.000311   0.016556   0.000094   0.000299  -0.000172   0.005527
     28      -0.083829   0.158338  -0.010237   0.036091  -0.010704   0.023301
     29      -0.394104   0.681357  -0.069880   0.234171  -0.061838   0.134138
     30       0.197646   0.002992  -0.245962  -0.121703  -0.267641  -0.007889
     31       0.231600   0.004839  -0.324528  -0.153813  -0.318575  -0.009673
     32       0.294350   0.006434  -0.402816  -0.187625  -0.381052  -0.013068
     33       0.175956   0.012100  -0.143698   0.034568   0.349206  -0.005339
     34       0.057308   0.004017  -0.053916   0.012141   0.127052  -0.002874
     35      -0.350256  -0.025809   0.327831  -0.056151  -0.691803   0.012756
     36      -0.517913   0.025096  -0.641932  -0.196056   0.134271  -0.045081
     37       0.133930  -0.007303   0.180769   0.055942  -0.032191   0.012411
     38      -0.028447   0.001002  -0.033903  -0.006891   0.025305  -0.002818
     39       0.000020  -0.000039   0.000011   0.000068   0.000032  -0.000028
     40       0.000026  -0.000019  -0.000005  -0.000043   0.000004  -0.000019
     41       0.000001  -0.000035  -0.000018  -0.000023  -0.000012  -0.000007


-----------
IR SPECTRUM
-----------

 Mode   freq       eps      Int      T**2         TX        TY        TZ
       cm**-1   L/(mol*cm) km/mol    a.u.
----------------------------------------------------------------------------
  6:     91.65   0.000212    1.07  0.000723  ( 0.009811 -0.019660 -0.015497)
  7:     98.93   0.000380    1.92  0.001198  (-0.001149  0.030149 -0.016966)
  8:    138.49   0.007808   39.46  0.017593  (-0.129553  0.024874  0.013786)
  9:    164.15   0.005471   27.65  0.010401  (-0.099991  0.017849  0.009196)
 10:    194.04   0.000108    0.55  0.000174  (-0.008678  0.002838  0.009496)
 11:    244.98   0.000689    3.48  0.000877  ( 0.024121 -0.013606  0.010508)
 12:    357.82   0.001882    9.51  0.001641  ( 0.037657  0.014649  0.002909)
 13:    439.28   0.003615   18.27  0.002568  ( 0.042629 -0.018194  0.020489)
 14:    489.91   0.088950  449.52  0.056659  ( 0.233965 -0.037751 -0.022228)
 15:    554.61   0.002769   13.99  0.001558  ( 0.035750  0.016335 -0.003595)
 16:    772.86   0.007334   37.06  0.002961  (-0.032574  0.027090  0.034155)
 17:    815.87   0.000850    4.30  0.000325  (-0.004724 -0.010468  0.013905)
 18:    929.20   0.000296    1.50  0.000099  (-0.000361  0.007033 -0.007058)
 19:    947.56   0.003829   19.35  0.001261  ( 0.010157 -0.008519 -0.032945)
 20:   1003.91   0.001289    6.51  0.000401  ( 0.004065 -0.013274  0.014416)
 21:   1032.91   0.008433   42.61  0.002548  ( 0.042693  0.026922 -0.000334)
 22:   1095.89   0.004308   21.77  0.001227  (-0.034309  0.006869  0.001559)
 23:   1133.49   0.000799    4.04  0.000220  (-0.001697 -0.003314 -0.014360)
 24:   1142.57   0.000764    3.86  0.000209  ( 0.002383 -0.008358  0.011537)
 25:   1160.82   0.011232   56.76  0.003019  (-0.044606  0.011686  0.029885)
 26:   1216.15   0.001555    7.86  0.000399  ( 0.013470  0.007351 -0.012785)
 27:   1363.37   0.002719   13.74  0.000622  ( 0.023227  0.005663 -0.007124)
 28:   1411.84   0.002176   11.00  0.000481  (-0.013590 -0.016135  0.005996)
 29:   1426.24   0.001750    8.85  0.000383  ( 0.018871 -0.005104  0.000901)
 30:   1475.20   0.000581    2.94  0.000123  ( 0.002757  0.006874  0.008254)
 31:   1483.96   0.000971    4.91  0.000204  ( 0.003354 -0.009613 -0.010027)
 32:   1488.61   0.000527    2.66  0.000110  ( 0.003952  0.009400  0.002540)
 33:   1500.47   0.002649   13.38  0.000551  (-0.008090  0.001668  0.021969)
 34:   1539.13   0.002622   13.25  0.000532  (-0.000016  0.009632 -0.020949)
 35:   3053.48   0.001198    6.05  0.000122  (-0.006333 -0.008213 -0.003857)
 36:   3059.56   0.002195   11.09  0.000224  ( 0.012604 -0.005819  0.005583)
 37:   3124.90   0.001637    8.27  0.000163  ( 0.005347  0.003772 -0.010985)
 38:   3137.62   0.001605    8.11  0.000160  ( 0.009990  0.007701  0.000733)
 39:   3146.31   0.000681    3.44  0.000068  ( 0.003305 -0.007327  0.001710)
 40:   3152.06   0.000932    4.71  0.000092  (-0.002099  0.002985  0.008888)
 41:   3169.35   0.002540   12.83  0.000250  ( 0.001379 -0.015128 -0.004396)

* The epsilon (eps) is given for a Dirac delta lineshape.
** The dipole moment derivative (T) already includes vibrational overlap.

The first frequency considered to be a vibration is 6
The total number of vibrations considered is 36


--------------------------
THERMOCHEMISTRY AT 298.15K
--------------------------

Temperature         ...   298.15 K
Pressure            ...     1.00 atm
Total Mass          ...   107.56 AMU
Quasi RRHO          ...     True
Cut-Off Frequency   ...     1.00 cm^-1

Throughout the following assumptions are being made:
  (1) The electronic state is orbitally nondegenerate
      but the spin degeneracy is treated
  (2) There are no thermally accessible electronically excited states
  (3) Hindered rotations indicated by low frequency modes are not
      treated as such but are treated as vibrations and this may
      cause some error
  (4) All equations used are the standard statistical mechanics
      equations for an ideal gas
  (5) All vibrations are strictly harmonic

freq.      91.65  E(vib)   ...       0.47 
freq.      98.93  E(vib)   ...       0.46 
freq.     138.49  E(vib)   ...       0.42 
freq.     164.15  E(vib)   ...       0.39 
freq.     194.04  E(vib)   ...       0.36 
freq.     244.98  E(vib)   ...       0.31 
freq.     357.82  E(vib)   ...       0.22 
freq.     439.28  E(vib)   ...       0.17 
freq.     489.91  E(vib)   ...       0.15 
freq.     554.61  E(vib)   ...       0.12 
freq.     772.86  E(vib)   ...       0.05 
freq.     815.87  E(vib)   ...       0.05 
freq.     929.20  E(vib)   ...       0.03 
freq.     947.56  E(vib)   ...       0.03 
freq.    1003.91  E(vib)   ...       0.02 
freq.    1032.91  E(vib)   ...       0.02 
freq.    1095.89  E(vib)   ...       0.02 
freq.    1133.49  E(vib)   ...       0.01 
freq.    1142.57  E(vib)   ...       0.01 
freq.    1160.82  E(vib)   ...       0.01 
freq.    1216.15  E(vib)   ...       0.01 
freq.    1363.37  E(vib)   ...       0.01 
freq.    1411.84  E(vib)   ...       0.00 
freq.    1426.24  E(vib)   ...       0.00 
freq.    1475.20  E(vib)   ...       0.00 
freq.    1483.96  E(vib)   ...       0.00 
freq.    1488.61  E(vib)   ...       0.00 
freq.    1500.47  E(vib)   ...       0.00 
freq.    1539.13  E(vib)   ...       0.00 
freq.    3053.48  E(vib)   ...       0.00 
freq.    3059.56  E(vib)   ...       0.00 
freq.    3124.90  E(vib)   ...       0.00 
freq.    3137.62  E(vib)   ...       0.00 
freq.    3146.31  E(vib)   ...       0.00 
freq.    3152.06  E(vib)   ...       0.00 
freq.    3169.35  E(vib)   ...       0.00 

------------
INNER ENERGY
------------

The inner energy is: U= E(el) + E(ZPE) + E(vib) + E(rot) + E(trans)
    E(el)   - is the total energy from the electronic structure calculation
              = E(kin-el) + E(nuc-el) + E(el-el) + E(nuc-nuc)
    E(ZPE)  - the the zero temperature vibrational energy from the frequency calculation
    E(vib)  - the the finite temperature correction to E(ZPE) due to population
              of excited vibrational states
    E(rot)  - is the rotational thermal energy
    E(trans)- is the translational thermal energy

Summary of contributions to the inner energy U:
Electronic energy                ...   -691.91345986 Eh
Zero point energy                ...      0.10834334 Eh      67.99 kcal/mol
Thermal vibrational correction   ...      0.00535177 Eh       3.36 kcal/mol
Thermal rotational correction    ...      0.00141627 Eh       0.89 kcal/mol
Thermal translational correction ...      0.00141627 Eh       0.89 kcal/mol
-----------------------------------------------------------------------
Total thermal energy                   -691.79693221 Eh


Summary of corrections to the electronic energy:
(perhaps to be used in another calculation)
Total thermal correction                  0.00818431 Eh       5.14 kcal/mol
Non-thermal (ZPE) correction              0.10834334 Eh      67.99 kcal/mol
-----------------------------------------------------------------------
Total correction                          0.11652766 Eh      73.12 kcal/mol


--------
ENTHALPY
--------

The enthalpy is H = U + kB*T
                kB is Boltzmann's constant
Total thermal energy              ...   -691.79693221 Eh 
Thermal Enthalpy correction       ...      0.00094421 Eh       0.59 kcal/mol
-----------------------------------------------------------------------
Total Enthalpy                    ...   -691.79598800 Eh


Note: Only C1 symmetry has been detected, increase convergence thresholds 
      if your molecule has a higher symmetry. Symmetry factor of 1.0 is   
      used for the rotational entropy correction. 
 

Note: Rotational entropy computed according to Herzberg 
Infrared and Raman Spectra, Chapter V,1, Van Nostrand Reinhold, 1945 
Point Group:  C1, Symmetry Number:   1  
Rotational constants in cm-1:     0.147231     0.043925     0.039368 

Vibrational entropy computed according to the QRRHO of S. Grimme
Chem.Eur.J. 2012 18 9955 using a reference frequency of 100.0 cm-1


-------
ENTROPY
-------

The entropy contributions are T*S = T*(S(el)+S(vib)+S(rot)+S(trans))
     S(el)   - electronic entropy
     S(vib)  - vibrational entropy
     S(rot)  - rotational entropy
     S(trans)- translational entropy
The entropies will be listed as multiplied by the temperature to get
units of energy

Electronic entropy                ...      0.00065446 Eh      0.41 kcal/mol
Vibrational entropy               ...      0.00949864 Eh      5.96 kcal/mol
Rotational entropy                ...      0.01341774 Eh      8.42 kcal/mol
Translational entropy             ...      0.01897446 Eh     11.91 kcal/mol
-----------------------------------------------------------------------
Final entropy term                ...      0.04254530 Eh     26.70 kcal/mol

In case the symmetry of your molecule has not been determined correctly
or in case you have a reason to use a different symmetry number we print 
out the resulting rotational entropy values for sn=1,12:

 non-linear molecules -----------------------------------
|  sn= 1 | S(rot)=       0.01341774 Eh      8.42 kcal/mol|
|  sn= 2 | S(rot)=       0.01276329 Eh      8.01 kcal/mol|
|  sn= 3 | S(rot)=       0.01238045 Eh      7.77 kcal/mol|
|  sn= 4 | S(rot)=       0.01210883 Eh      7.60 kcal/mol|
|  sn= 5 | S(rot)=       0.01189814 Eh      7.47 kcal/mol|
|  sn= 6 | S(rot)=       0.01172600 Eh      7.36 kcal/mol|
|  sn= 7 | S(rot)=       0.01158045 Eh      7.27 kcal/mol|
|  sn= 8 | S(rot)=       0.01145437 Eh      7.19 kcal/mol|
|  sn= 9 | S(rot)=       0.01134316 Eh      7.12 kcal/mol|
|  sn=10 | S(rot)=       0.01124369 Eh      7.06 kcal/mol|
|  sn=11 | S(rot)=       0.01115370 Eh      7.00 kcal/mol|
|  sn=12 | S(rot)=       0.01107154 Eh      6.95 kcal/mol|
 linear molecules ---------------------------------------
|  Dinfh | S(rot)=       0.00838004 Eh      5.26 kcal/mol|
|  Cinfv | S(rot)=       0.00903450 Eh      5.67 kcal/mol|
 --------------------------------------------------------


-------------------
GIBBS FREE ENERGY
-------------------

The Gibbs free energy is G = H - T*S

Total enthalpy                    ...   -691.79598800 Eh 
Total entropy correction          ...     -0.04254530 Eh    -26.70 kcal/mol
-----------------------------------------------------------------------
Final Gibbs free energy         ...   -691.83853329 Eh

For completeness - the Gibbs free energy minus the electronic energy
G-E(el)                           ...      0.07492657 Eh     47.02 kcal/mol



--------------------------------
SUGGESTED CITATIONS FOR THIS RUN
--------------------------------

Below you find a list of papers that are relevant to this ORCA run
We neither can nor want to force you to cite these papers, but we appreciate if you do
You receive ORCA, which is the product of decades of hard work by many enthusiastic individuals, for free
The only thing we kindly ask in return is that you cite our papers,
We deeply appreciate it, if you show your appreciation for ORCA by not just citing the generic ORCA reference.

Please note that relegating all ORCA citations to the supporting information does *not* help us.
SI sections are not indexed - citations you put there will not count into any citation statistics
But we need these citations in order to attract the funding resources that allow us to do what we are doing

Therefore, if you are a happy ORCA user, please consider citing a few of the papers listed below in the main body of your paper

In addition to the list printed below, the program has created the file opt.bibtex that contains the list in bibtex format
You can import this file easily into all common literature databanks and citation aid programs


List of essential papers. We consider these as the minimum necessary citations

  1. Neese, F.
     Software update: the ORCA program system, version 6.0
     WIRES Comput. Molec. Sci. 2025 15(1), e70019
     doi.org/10.1002/wcms.7019

List of papers to cite with high priority. The work reported in these papers was absolutely
necessary for this run to complete.
Our perspective: the developers of density functionals and basis sets usually get cited in chemistry papers
Good! But without the algorithms to do something with them, the functionals or basis sets would not do anything.
Hence, in our opinion, the algorithm design and method developments papers are equally worthy of getting cited

  1. Neese, F.
     An improvement of the resolution of the identity approximation for the formation of the Coulomb matrix
     J. Comp. Chem. 2003 24(14), 1740-1747
     doi.org/10.1002/jcc.10318
  2. Neese, F.; Schwabe, T.; Grimme, S.
     Analytic derivatives for perturbatively corrected 'double hybrid' density functionals: Theory, implementation, and applications
     J. Chem. Phys. 2007 126(12), Art. No. 124115
     doi.org/10.1063/1.2712433
  3. Neese, F.; Wennmohs, F.; Hansen, A.; Becker, U.
     Efficient, approximate and parallel Hartree-Fock and hybrid DFT calculations. A 'chain-of-spheres' algorithm for the Hartree-Fock exchange
     Chem. Phys. 2009 356(1-3), 98-109
     doi.org/10.1016/j.chemphys.2008.10.036
  4. Kossmann, S.; Neese, F.
     Efficient Structure Optimization with Second-Order Many-Body Perturbation Theory: The RIJCOSX-MP2 Method
     J. Theo. Comp. Chem. 2010 6 , 2325-2338
     doi.org/10.1021/ct100199k
  5. Caldeweyher, E.; Bannwarth, C.; Grimme, S.
     Extension of the D3 dispersion coefficient model
     J. Chem. Phys. 2017 147 , 034112
     doi.org/10.1063/1.4993215
  6. Caldeweyher, E.; Ehlert, S.; Hansen, A.; Neugebauer, H.; Spicher, S.; Bannwarth, C.; Grimme, S.
     A generally applicable atomic-charge dependent London dispersion correction
     J. Chem. Phys. 2019 150 , 154122
     doi.org/10.1063/1.5090222
  7. Caldeweyher, E.; Mewes, J.; Ehlert, S.; Grimme, S.
     Extension and evaluation of the D4 London-dispersion model for periodic systems
     Phys. Chem. Chem. Phys. 2020 22(16), 8499-8512
     doi.org/10.1039/D0CP00502A
  8. Helmich-Paris, B.; de Souza, B.; Neese, F.; Izsák, R.
     An improved chain of spheres for exchange algorithm
     J. Chem. Phys. 2021 155(10), 104109
     doi.org/10.1063/5.0058766
  9. Neese, F.
     The SHARK Integral Generation and Digestion System
     J. Comp. Chem. 2022 44(3), 381
     doi.org/10.1002/jcc.26942
 10. Wittmann, L.; Gordiy, I.; Friede, M.; Helmich-Paris, B.; Grimme, S.; Hansen, A.; Bursch, M.
     Extension of the D3 and D4 London Dispersion Corrections to the full Actinides Series
     Phys. Chem. Chem. Phys. 2024 26(32), 21379-21394
     doi.org/10.1039/D4CP01514B

List of suggested additional citations. These are papers that are important in the 'surrounding' of 
of this run, or papers that preceded the highly important papers. If you like your results we are grateful for a citation.

  1. Izsak, R.; Neese, F.
     An overlap fitted chain of spheres exchange method
     J. Chem. Phys. 2011 135 , 144105
     doi.org/10.1063/1.3646921
  2. Izsak, R.; Hansen, A.; Neese, F.
     The resolution of identity and chain of spheres approximations for the LPNO-CCSD singles Fock term
     Molec. Phys. 2012 110 , 2413-2417
     doi.org/10.1080/00268976.2012.687466
  3. Neese, F.
     The ORCA program system
     WIRES Comput. Molec. Sci. 2012 2(1), 73-78
     doi.org/10.1002/wcms.81
  4. Izsak, R.; Neese, F.; Klopper, W.
     Robust fitting techniques in the chain of spheres approximation to the Fock exchange: The role of the complementary space
     J. Chem. Phys. 2013 139 , 
     doi.org/10.1063/1.4819264
  5. Neese, F.
     Software update: the ORCA program system, version 4.0
     WIRES Comput. Molec. Sci. 2018 8(1), 1-6
     doi.org/10.1002/wcms.1327
  6. Neese, F.; Wennmohs, F.; Becker, U.; Riplinger, C.
     The ORCA quantum chemistry program package
     J. Chem. Phys. 2020 152(22), 224108
     doi.org/10.1063/5.0004608
  7. Neese, F.
     Software update: The ORCA program system—Version 5.0
     WIRES Comput. Molec. Sci. 2022 12(1), e1606
     doi.org/10.1002/wcms.1606

List of optional additional citations

  1. Neese, F.
     Approximate second-order SCF convergence for spin unrestricted wavefunctions
     Chem. Phys. Lett. 2000 325(1-3), 93-98
     doi.org/10.1016/s0009-2614(00)00662-x

Timings for individual modules:

Sum of individual times          ...     2321.821 sec (=  38.697 min)
Startup calculation              ...       31.042 sec (=   0.517 min)   1.3 %
SCF iterations                   ...      180.456 sec (=   3.008 min)   7.8 %
Property calculations            ...        1.842 sec (=   0.031 min)   0.1 %
MP2 module                       ...      271.416 sec (=   4.524 min)  11.7 %
Geometry relaxation              ...        0.055 sec (=   0.001 min)   0.0 %
Numerical frequency calculation  ...     1837.010 sec (=  30.617 min)  79.1 %
                             ****ORCA TERMINATED NORMALLY****
TOTAL RUN TIME: 0 days 0 hours 38 minutes 30 seconds 684 msec
