
                                 *****************
                                 * O   R   C   A *
                                 *****************

                                            #,                                       
                                            ###                                      
                                            ####                                     
                                            #####                                    
                                            ######                                   
                                           ########,                                 
                                     ,,################,,,,,                         
                               ,,#################################,,                 
                          ,,##########################################,,             
                       ,#########################################, ''#####,          
                    ,#############################################,,   '####,        
                  ,##################################################,,,,####,       
                ,###########''''           ''''###############################       
              ,#####''   ,,,,##########,,,,          '''####'''          '####       
            ,##' ,,,,###########################,,,                        '##       
           ' ,,###''''                  '''############,,,                           
         ,,##''                                '''############,,,,        ,,,,,,###''
      ,#''                                            '''#######################'''  
     '                                                          ''''####''''         
             ,#######,   #######,   ,#######,      ##                                
            ,#'     '#,  ##    ##  ,#'     '#,    #''#        ,####,    ,#,          
            ##       ##  ##   ,#'  ##            #'  '#       #'       ,# #          
            ##       ##  #######   ##           ,######,      #####,      #          
            '#,     ,#'  ##    ##  '#,     ,#' ,#      #,     #,   #      #          
             '#######'   ##     ##  '#######'  #'      '#     '####' #    #          



                #########################################################
                #                        -***-                          #
                #          Department of theory and spectroscopy        #
                #                                                       #
                #                      Frank Neese                      #
                #                                                       #
                #     Directorship, Architecture, Infrastructure        #
                #                    SHARK, DRIVERS                     #
                #        Core code/Algorithms in most modules           #
                #                                                       #
                #        Max Planck Institute fuer Kohlenforschung      #
                #                Kaiser Wilhelm Platz 1                 #
                #                 D-45470 Muelheim/Ruhr                 #
                #                      Germany                          #
                #                                                       #
                #                  All rights reserved                  #
                #                        -***-                          #
                #########################################################


                         Program Version 6.1.0  -  RELEASE   -
                                (GIT: $679e74b$)
                          ($2025-06-10 18:02:51 +0200$)


 With contributions from (in alphabetic order):
[Max-Planck-Institut fuer Kohlenforschung]                               
  Daniel Aravena         : Magnetic Suceptibility                        
  Michael Atanasov       : Ab Initio Ligand Field Theory (pilot matlab implementation)
  Alexander A. Auer      : GIAO ZORA, VPT2 properties, NMR spectrum      
  Ute Becker             : All parallelization in ORCA, NUMFREQ, NUMCALC 
  Giovanni Bistoni       : ED, misc. LED, open-shell LED, HFLD           
  Dmytro Bykov           : pre 5.0 version of the SCF Hessian            
  Marcos Casanova-Páez   : Triplet and SCS-CIS(D). UHF-(DLPNO)-IP/EA/STEOM-CCSD. UHF-CVS-IP/STEOM-CCSD   
  Vijay G. Chilkuri      : MRCI spin determinant printing, contributions to CSF-ICE 
  Pauline Colinet        : FMM embedding                                 
  Dipayan Datta          : RHF DLPNO-CCSD density                        
  Achintya Kumar Dutta   : EOM-CC, STEOM-CC                              
  Nicolas Foglia         : Exact transition moments, OPA infrastructure, MCD improvements    
  Dmitry Ganyushin       : Spin-Orbit,Spin-Spin,Magnetic field MRCI      
  Miquel Garcia-Rates    : C-PCM and meta-GGA Hessian, CCSD/C-PCM, Gaussian charge scheme 
  Tiago L. C. Gouveia    : GS-ROHF, GS-ROCIS                             
  Yang Guo               : DLPNO-NEVPT2, F12-NEVPT2, CIM, IAO-localization        
  Andreas Hansen         : Spin unrestricted coupled pair/coupled cluster methods 
  Ingolf Harden          : AUTO-CI MPn and infrastructure                
  Benjamin Helmich-Paris : MC-RPA, TRAH-(SCF,CASSCF), AVAS, COSX integrals, SCF dyn. polar., MC-PDFT, srDFT 
  Lee Huntington         : MR-EOM, pCC                                   
  Robert Izsak           : Overlap fitted RIJCOSX, COSX-SCS-MP3, EOM     
  Riya Kayal             : Wick's Theorem for AUTO-CI, AUTO-CI UHF-CCSDT 
  Emily Kempfer          : AUTO-CI RHF CISDT and CCSDT, approximate NEVPT4
  Christian Kollmar      : KDIIS, OOCD, Brueckner-CCSD(T), CCSD density, CASPT2, CASPT2-K, improved NEVPT2 
  Axel Koslowski         : Symmetry handling                             
  Simone Kossmann        : meta-GGA functionals, TD-DFT gradient, OOMP2, (MP2 Hessian; deprecated post 5.0) 
  Lucas Lang             : DCDCAS, Hyperfine gauge corrections, ICE-SOC+SSC
  Marvin Lechner         : AUTO-CI (C++ implementation), FIC-MRCC        
  Spencer Leger          : CASSCF response                               
  Dagmar Lenk            : GEPOL surface, SMD, ORCA-2-JSON               
  Dimitrios Liakos       : Extrapolation schemes; Compound Job, Property file
  Dimitrios Manganas     : Further ROCIS development; embedding schemes. LFT, Crystal Embedding 
  Dimitrios Pantazis     : SARC Basis sets                               
  Anastasios Papadopoulos: AUTO-CI, single reference methods and gradients 
  Taras Petrenko         : pre 6.0 DFT Hessian and TD-DFT gradient,  ECA, NRVS 
  Petra Pikulova         : Analytic Raman intensities                    
  Peter Pinski           : DLPNO-MP2, DLPNO-MP2 Gradient                 
  Shashank Vittal Rao    : ES-AILFT, MagRelax                            
  Christoph Reimann      : Effective Core Potentials                     
  Marius Retegan         : Local ZFS, SOC                                
  Christoph Riplinger    : Optimizer, TS searches, QM/MM, DLPNO-CCSD(T), (RO)-DLPNO pert. Triples 
  Michael Roemelt        : Original ROCIS implementation, recursive CI coupling coefficients
  Masaaki Saitow         : Open-shell DLPNO-CCSD energy and density      
  Barbara Sandhoefer     : DKH picture change effects                    
  Yorick L. A. Schmerwitz: GMF and freeze-and-release deltaSCF, NEB S-IDPP initial path                    
  Kantharuban Sivalingam : CASSCF convergence/infrastructure, NEVPT2, NEVPT3, NEVPT4(SD), FIC-MRCI and CEPA variants
  Bernardo de Souza      : ESD, SOC TD-DFT                               
  Georgi L. Stoychev     : AutoAux, RI-MP2 NMR, DLPNO-MP2 response, X2C  
  Van Anh Tran           : RI-MP2 g-tensors                              
  Willem Van den Heuvel  : Paramagnetic NMR                              
  Zikuan Wang            : NOTCH, Electric field optimization            
  Frank Wennmohs         : Technical directorship and infrastructure     
  Hang Xu                : AUTO-CI-Response properties                   
                                                                         
[FACCTs GmbH]                                                            
  Markus Bursch, Nicolas Foglia, Miquel Garcia-Rates, Ingolf Harden, Hagen Neugebauer, Anastasios Papadopoulos, 
  Christoph Riplinger, Bernardo de Souza, Georgi L. Stoychev                                                    
                                                                 
  APM, various basis sets, CI-OPT, improved COSX, DLPNO-Multilevel,           
  DOCKER, DRACO, updates on ESD, Fragmentator, GOAT, IRC, LR-CPCM, L-BFGS, MBIS, meta-GGA TD-DFT gradient, ML-optimized integration grids, 
  MM, NACMEs, nearIR, NEB, NEB-TS, NL-DFT gradient (VV10), 2- and 3-layer-ONIOM, interface openCOSMO-RS, QMMM,   
  Crystal-QMMM, RESP, rigid body optimization, SF, symmetry and pop. for TD-DFT, various functionals, SOLVATOR                                   
                                                                         
[Other institutions]                                                     
  V. Asgeirsson          : NEB                                           
  Christoph Bannwarth    : sTDA-DFT, sTD-DFT, PBEh-3c, B97-3c, D3        
  Giovanni Bistoni       : ETS/NOCV, ADLD/ADEX, COVALED                  
  Martin Brehm           : Molecular dynamics                            
  Ronald Cardenas        : ETS/NOCV                                      
  Martina Colucci        : COVALED                                       
  Sebastian Ehlert       : rSCAN, r2SCAN, r2SCAN-3c, D4, dhf basis sets  
  Marvin Friede          : D4 for Fr, Ra, Ac-Lr                          
  Lars Goerigk           : TD-DFT with DH, B97 family of functionals     
  Stefan Grimme          : VdW corrections, initial TS optimization, DFT functionals, gCP, sTDA/sTD-DF 
  Waldemar Hujo          : DFT-NL                                        
  H. Jonsson             : NEB                                           
  Holger Kruse           : gCP                                           
  Marcel Mueller         : wB97X-3c, vDZP basis set                      
  Hagen Neugebauer       : wr2SCAN, Native XTB                           
  Gianluca Regni         : ADLD/ADEX                                     
  Tobias Risthaus        : pre 6.0 range-separated hybrid DFT and stability analysis
  Lukas Wittmann         : regularized MP2, r2SCAN double-hybrids, wr2SCAN        
                                                                         
We gratefully acknowledge several colleagues who have allowed us to      
interface, adapt or use parts of their codes:                            
  Ed Valeev, F. Pavosevic, A. Kumar             : LibInt (2-el integral package), F12 methods 
  Garnet Chan, S. Sharma, J. Yang, R. Olivares  : DMRG                   
  Ulf Ekstrom                                   : XCFun DFT Library      
  Mihaly Kallay                                 : mrcc  (arbitrary order and MRCC methods)
  Frank Weinhold                                : gennbo (NPA and NBO analysis)           
  Simon Mueller                                 : openCOSMO-RS                            
  Christopher J. Cramer and Donald G. Truhlar   : smd solvation model                     
  S Lehtola, MJT Oliveira, MAL Marques          : LibXC Library                           
  Liviu Ungur et al                             : ANISO software                          


 Your calculation uses the libint2 library for the computation of 2-el integrals
 For citations please refer to: http://libint.valeyev.net

 Your ORCA version has been built with support for libXC version: 7.0.0
 For citations please refer to: https://libxc.gitlab.io

 This ORCA versions uses:
   CBLAS   interface :  Fast vector & matrix operations
   LAPACKE interface :  Fast linear algebra routines
   SCALAPACK package :  Parallel linear algebra routines
   Shared memory     :  Shared parallel matrices
   BLAS/LAPACK       :  OpenBLAS 0.3.29  USE64BITINT DYNAMIC_ARCH NO_AFFINITY SkylakeX SINGLE_THREADED
        Core in use  :  SkylakeX
   Copyright (c) 2011-2014, The OpenBLAS Project


  ***********************************
  * Starting time: Wed Sep  3 16:10:27 2025
  * Host name:     csed-0035
  * Process ID:    3043934
  * Working dir.:  /gpfs/fs1/home/copan/proj/project-dimethyl-oxirane-cl-abstraction/calc_saddle_bc/saddle_opt_revdsd
  ***********************************

NOTE: MaxCore=10000 MB was set to SCF,MP2,MDCI,CIPSI,MRCI,RASCI and CIS
      => If you want to overwrite this, your respective input block should be placed after the MaxCore statement


***************************************
The coordinates will be read from file: well_b.xyz
***************************************


Your calculation utilizes the atom-pairwise dispersion correction
based on EEQ partial charges (D4)


Your calculation utilizes a Nudged-Elastic-Band implementation
by V. Ásgeirsson, C. Riplinger & H. Jónsson
Please cite in your paper:
Ásgeirsson, V.; Birgisson, B. O.; Bjornsson, R.; Becker, U.; Neese, F.; Riplinger, R.;
Jónsson H. J. Chem. Theory Comput. 2021, 17, 4929-4945
   

Warning: RI is on but no J-basis has been assigned. Assigning Def2/J (nothing to worry about!)
================================================================================

----- Orbital basis set information -----
Your calculation utilizes the basis: def2-TZVPP
   F. Weigend and R. Ahlrichs, Phys. Chem. Chem. Phys. 7, 3297 (2005).

----- AuxJ basis set information -----
Your calculation utilizes the auxiliary basis: def2/J
   H-Rn: F. Weigend, Phys. Chem. Chem. Phys. 8, 1057 (2006).
   Fr-Lr: K. Eichkorn, F. Weigend, O. Treutler, R. Ahlrichs; Theor. Chem. Acc. 97, 119 (1997).

----- AuxC basis set information -----
Your calculation utilizes the auxiliary basis: def2-TZVPP/C
  H-La, Hf-Rn : A. Hellweg, C. Hattig, S. Hofener and W. Klopper, Theor. Chem. Acc. 117, 587 (2007).
        Ce-Lu : J. Chmela and M. E. Harding, Mol. Phys. (2018).

================================================================================
                                        WARNINGS
                       Please study these warnings very carefully!
================================================================================


WARNING: your system is open-shell and RHF/RKS was chosen
  ===> : WILL SWITCH to UHF/UKS


WARNING: The frozen-core approximation for MP2-gradient calculations is turned on by default.

WARNING: The environment variable RSH_COMMAND is not set!
  ===> : All Displacements for the Numerical Hessian or Gradient calculation
         will be started on localhost

WARNING: Geometry Optimization
  ===> : Switching off AutoStart
         For restart on a previous wavefunction, please use MOREAD

WARNING: The frozen-core approximation is turned on by default for 
         the MP2 part of double-hybrid DFT.

================================================================================
                                       INPUT FILE
================================================================================
NAME = opt.inp
|  1> % MaxCore 10000
|  2> ! PAL8
|  3> ! REVDSD-PBEP86-D4/2021 def2-TZVPP def2-TZVPP/c
|  4> ! TIGHT-NEB-TS
|  5> ! NumFreq
|  6> 
|  7> %NEB 
|  8>  NEB_END_XYZFILE "well_c.xyz" 
|  9> END
| 10> 
| 11> * xyzfile 0 2 well_b.xyz
| 12> 
| 13>                          ****END OF INPUT****
================================================================================


--------------------------------------------------------------------------------
                        Nudged Elastic Band Calculation
--------------------------------------------------------------------------------

Number of images (incl. end points)     ....  10
Number of intermediate images           ....  8
Number of optimized images              ....  8
Optimization of end points before NEB   ....  NO
Use existing gbw files for MO input     ....  NO
Number of atoms                         ....  14
Number of (active) degrees of freedom   ....  42
Constrained atoms                       ....  None

-----------------------------------------
  REACTANT (ANGSTROEM)
-----------------------------------------
C     -1.146588    -0.767105    -0.033116 
C     -2.545356    -0.789823    -0.571935 
C     -0.373943     0.446342     0.148340 
H     -0.600378    -1.704838    -0.064614 
O     -0.974179    -0.064144     1.262994 
C     -0.490546     1.862543    -0.283450 
H      1.443266    -0.031956     0.043306 
H     -3.022280     0.184246    -0.467467 
H     -3.146238    -1.532028    -0.043374 
H     -2.527379    -1.060452    -1.630100 
H     -0.048712     2.517951     0.468004 
H      0.029927     2.012605    -1.229110 
H     -1.541813     2.145140    -0.409794 
Cl     2.693392    -0.401026    -0.128162 

-----------------------------------------
  PRODUCT (ANGSTROEM)
-----------------------------------------
C     -1.130786    -0.768695    -0.056206 
C     -2.531836    -0.669850    -0.574591 
C     -0.256268     0.380709     0.145011 
H     -0.641502    -1.733619    -0.141718 
O     -0.880799    -0.135627     1.252033 
C     -0.369335     1.822460    -0.229672 
H      0.965644     0.039355     0.075650 
H     -2.940062     0.329237    -0.427702 
H     -3.175050    -1.387489    -0.062333 
H     -2.546287    -0.903671    -1.641402 
H      0.113958     2.437881     0.529644 
H      0.122455     1.995285    -1.186582 
H     -1.419687     2.112660    -0.300859 
Cl     2.455300    -0.365798    -0.132038 



----------------------
NEB settings
----------------------
Method type                             ....  climbing image
Threshold for climbing image            ....  2.00e-02 Eh/Bohr 
Free endpoints                          ....  off 
Tangent type                            ....  improved 
Number of intermediate images           ....  8 
Number of images free to move           ....  8 
Spring type for image distribution      ....  distance between adjacent images 
Spring constant                         ....  energy weighted (0.0100 -to- 0.1000) Eh/Bohr^2 
Spring force perp. to the path          ....  none 
Generation of initial path              ....  image dependent pair potential 
Initial path via TS guess               ....  off 

Minimization of RMSD: Rotation          ....  always 
Minimization of RMSD: Translation type  ....  centroid 
Center fixed to origin                  ....  true 
Remove external force                   ....  true 

Reparametrization of the path           ....  off 
Convergence thresholds:
Convergence monitored for               ....  all images
Scaling factor                          ....  10.00

Convergence parameters for regular images:
               Max(|Fp|)                ....  5.00e-03 Eh/Bohr
               RMS(Fp)                  ....  2.50e-03 Eh/Bohr

Convergence parameters for climbing image:
               Max(|F|)                 ....  5.00e-04 Eh/Bohr
               RMS(F)                   ....  2.50e-04 Eh/Bohr
Optimization method:
Method                                  ....  L-BFGS
Max. iterations                         ....  500 
Step size                               ....  1.00 
Maximum allowed step size               ....  0.10 Bohr

LBFGS parameters: 
               Memory                   ....  20 
               Initial step size        ....  0.0010 
               Estimate curvature       ....  YES 
               Reset on maxmove         ....  YES 
               Reparam. on reset        ....  NO 
Generation of  the initial path:
Two fragments detected in initial structure. Preparing initial structure... Done
Minimize RMSD between reactant and product configurations     .... done
       RMSD before minimization         ....  0.2101 Bohr
       RMSD after minimization          ....  0.1813 Bohr
Performing linear interpolation         ....  done
Generating initial path 1 out of 129 -> Success!
Displacement along initial path:              1.1748 Bohr
Writing initial trajectory to file      ....  opt_initial_path_trj.xyz



----------------------
NEB OPTIMIZATION      
----------------------

Following output files will be written:
Energy profile during opt. written to    ....  opt.interp
Optimization log-file                    ....  opt.NEB.log
Current trajectory will be written to    ....  opt_MEP_trj.xyz
       and to allxyz file                ....  opt_MEP.allxyz
       and individual images to xyz file ....  opt_im{NIm}.xyz
Trajectory history will be written to    ....  opt_MEP_ALL_trj.xyz
Converged CI will be written to          ....  opt_NEB-CI_converged.xyz
Converged TS will be written to          ....  opt_NEB-TS_converged.xyz

Single point energy and gradient calculation of reactant and
product configurations (have to be performed only once)
Properties of fixed NEB end points:
               Reactant:
                         E               ....   -691.915499 Eh
                         RMS(F)          ....      0.000037 Eh/Bohr
                         MAX(|F|)        ....      0.000103 Eh/Bohr
               Product:
                         E               ....   -691.913459 Eh
                         RMS(F)          ....      0.000016 Eh/Bohr
                         MAX(|F|)        ....      0.000047 Eh/Bohr



Starting iterations:

Optim.  Iteration  HEI  E(HEI)-E(0)  max(|Fp|)   RMS(Fp)    dS
Switch-on CI threshold               0.020000 
   LBFGS     0      6    0.002541    0.019261   0.002538  1.1748       

Image  6 will be converted to a climbing image in the next iteration (max(|Fp|) < 0.0200) 

Optim.  Iteration  CI   E(CI)-E(0)   max(|Fp|)   RMS(Fp)    dS     max(|FCI|)   RMS(FCI)
Convergence thresholds               0.005000   0.002500            0.000500    0.000250 
   LBFGS     1      6    0.001621    0.009761   0.001931  1.2025    0.007077    0.002407       
   LBFGS     2      6    0.001478    0.006491   0.001311  1.2004    0.006646    0.001810       
   LBFGS     3      6    0.001436    0.003773   0.000505  1.1978    0.003596    0.000957       
Warning: path is strictly increasing in energy   LBFGS     4      6    0.001418    0.002496   0.000445  1.2020    0.002924    0.000740       
Warning: path is strictly increasing in energy   LBFGS     5      6    0.001411    0.001368   0.000263  1.2063    0.002369    0.000539       
Warning: path is strictly increasing in energy   LBFGS     6      6    0.001455    0.001049   0.000210  1.2169    0.001655    0.000491       
Warning: path is strictly increasing in energy   LBFGS     7      6    0.001524    0.003278   0.000513  1.2253    0.002987    0.000868       
Warning: path is strictly increasing in energy   LBFGS     8      6    0.001547    0.001797   0.000278  1.2279    0.001826    0.000525       
   LBFGS     9      6    0.001716    0.003775   0.000461  1.2494    0.002313    0.000697       
Warning: path is strictly increasing in energy   LBFGS    10      6    0.001679    0.001847   0.000334  1.2399    0.001981    0.000554       
Warning: path is strictly increasing in energy   LBFGS    11      6    0.001697    0.001044   0.000180  1.2367    0.002064    0.000440       
   LBFGS    12      6    0.001907    0.002293   0.000322  1.2772    0.001911    0.000522       
Warning: path is strictly increasing in energy   LBFGS    13      6    0.001816    0.000468   0.000123  1.2491    0.001931    0.000586       
Warning: path is strictly increasing in energy   LBFGS    14      6    0.001603    0.001746   0.000294  1.2220    0.002917    0.000881       
Warning: path is strictly increasing in energy   LBFGS    15      6    0.001719    0.000922   0.000166  1.2315    0.002054    0.000615       
   LBFGS    16      6    0.001924    0.002121   0.000361  1.2839    0.002837    0.000790       
Warning: path is strictly increasing in energy   LBFGS    17      6    0.001806    0.000292   0.000072  1.2435    0.002082    0.000471       
Warning: path is strictly increasing in energy   LBFGS    18      6    0.001728    0.000492   0.000099  1.2282    0.002323    0.000440       
Warning: path is strictly increasing in energy   LBFGS    19      6    0.001803    0.000962   0.000152  1.2339    0.002225    0.000673       
   LBFGS    20      6    0.001902    0.001144   0.000172  1.2616    0.001761    0.000524       
   LBFGS    21      6    0.001908    0.001180   0.000147  1.2642    0.001764    0.000440       
Warning: path is strictly increasing in energy   LBFGS    22      6    0.001846    0.001479   0.000204  1.2474    0.002109    0.000656       
Warning: path is strictly increasing in energy   LBFGS    23      6    0.001759    0.001250   0.000176  1.2355    0.002144    0.000450       
Warning: path is strictly increasing in energy   LBFGS    24      6    0.001820    0.004456   0.000490  1.2416    0.002117    0.000453       
Warning: path is strictly increasing in energy   LBFGS    25      6    0.001848    0.000806   0.000106  1.2445    0.002043    0.000391       
Warning: path is strictly increasing in energy   LBFGS    26      6    0.001860    0.000187   0.000040  1.2442    0.002039    0.000377       
Warning: path is strictly increasing in energy   LBFGS    27      6    0.001907    0.001842   0.000220  1.2437    0.001945    0.000375       
Warning: path is strictly increasing in energy   LBFGS    28      6    0.001879    0.000359   0.000053  1.2413    0.002063    0.000373       
Warning: path is strictly increasing in energy   LBFGS    29      6    0.001901    0.001263   0.000146  1.2419    0.001980    0.000363       
   LBFGS    30      6    0.001946    0.001688   0.000211  1.2597    0.001670    0.000332       
   LBFGS    31      6    0.001947    0.002020   0.000224  1.2563    0.002275    0.000664       
Warning: path is strictly increasing in energy   LBFGS    32      6    0.001929    0.000767   0.000096  1.2493    0.001791    0.000350       
Warning: path is strictly increasing in energy   LBFGS    33      6    0.001899    0.000783   0.000093  1.2428    0.001962    0.000483       
Warning: path is strictly increasing in energy   LBFGS    34      6    0.001915    0.000344   0.000056  1.2443    0.001858    0.000339       
   LBFGS    35      6    0.001951    0.000643   0.000076  1.2496    0.001643    0.000450       
Warning: path is strictly increasing in energy   LBFGS    36      6    0.001936    0.000171   0.000037  1.2460    0.001717    0.000330       
Warning: path is strictly increasing in energy   LBFGS    37      6    0.001941    0.001348   0.000147  1.2465    0.002248    0.000625       
Warning: path is strictly increasing in energy   LBFGS    38      6    0.001941    0.000718   0.000085  1.2466    0.001719    0.000424       
Warning: path is strictly increasing in energy   LBFGS    39      6    0.001955    0.001400   0.000148  1.2508    0.001996    0.000641       
Warning: path is strictly increasing in energy   LBFGS    40      6    0.001948    0.000985   0.000105  1.2510    0.001569    0.000478       
Warning: path is strictly increasing in energy   LBFGS    41      6    0.001962    0.000526   0.000072  1.2569    0.001540    0.000426       
Warning: path is strictly increasing in energy   LBFGS    42      6    0.001957    0.000596   0.000075  1.2580    0.001500    0.000368       
   LBFGS    43      6    0.001996    0.000983   0.000135  1.2742    0.000970    0.000213       
   LBFGS    44      6    0.002058    0.003469   0.000372  1.2602    0.006815    0.001874       
   LBFGS    45      8    0.002047    0.000765   0.000090  1.2651    0.000131    0.000042       

                                .--------------------.
          ----------------------| CI-NEB convergence |-------------------------
          Item                value                   Tolerance       Converged
          ---------------------------------------------------------------------
          RMS(Fp)             0.0000899763            0.0025000000      YES
          MAX(|Fp|)           0.0007645500            0.0050000000      YES
          RMS(FCI)            0.0000423690            0.0002500000      YES
          MAX(|FCI|)          0.0001310922            0.0005000000      YES
          ---------------------------------------------------------------------

The elastic band and climbing image have converged successfully to a MEP in 45 iterations!


                    *********************H U R R A Y*********************
                    ***        THE NEB OPTIMIZATION HAS CONVERGED     ***
                    *****************************************************



---------------------------------------------------------------
                         PATH SUMMARY              
---------------------------------------------------------------
All forces in Eh/Bohr.

Image Dist.(Ang.)    E(Eh)   dE(kcal/mol)  max(|Fp|)  RMS(Fp)
  0     0.000    -691.91550      0.00       0.00010   0.00004
  1     0.080    -691.91546      0.03       0.00012   0.00004
  2     0.164    -691.91534      0.10       0.00032   0.00009
  3     0.258    -691.91509      0.26       0.00011   0.00004
  4     0.370    -691.91462      0.55       0.00018   0.00007
  5     0.492    -691.91400      0.94       0.00029   0.00008
  6     0.601    -691.91350      1.25       0.00076   0.00022
  7     0.624    -691.91347      1.28       0.00017   0.00005
  8     0.644    -691.91345      1.28       0.00014   0.00004 <= CI
  9     0.669    -691.91346      1.28       0.00004   0.00002

Straight line distance between images along the path:
        D( 0- 1) =   0.0804 Ang.
        D( 1- 2) =   0.0834 Ang.
        D( 2- 3) =   0.0939 Ang.
        D( 3- 4) =   0.1120 Ang.
        D( 4- 5) =   0.1224 Ang.
        D( 5- 6) =   0.1085 Ang.
        D( 6- 7) =   0.0229 Ang.
        D( 7- 8) =   0.0201 Ang.
        D( 8- 9) =   0.0258 Ang.

---------------------------------------------------------------
               INFORMATION ABOUT SADDLE POINT     
---------------------------------------------------------------

Climbing image                            ....  8 
Energy                                    ....  -691.91345153 Eh
Max. abs. force                           ....  1.3109e-04 Eh/Bohr

-----------------------------------------
  SADDLE POINT (ANGSTROEM)
-----------------------------------------
C     -0.223373    -0.996957     0.171382 
C     -1.624692    -0.969515    -0.355005 
C      0.602893     0.191806     0.339224 
H      0.302783    -1.944722     0.122303 
O     -0.004656    -0.309286     1.459851 
C      0.447542     1.614811    -0.084801 
H      1.863174    -0.113885     0.283195 
H     -2.071566     0.017742    -0.244186 
H     -2.242788    -1.693634     0.178574 
H     -1.624580    -1.239506    -1.413335 
H      0.905578     2.271157     0.655681 
H      0.939183     1.770999    -1.044587 
H     -0.611436     1.867915    -0.171289 
Cl     3.341937    -0.466926     0.102993 

-----------------------------------------
  FORCES (Eh/Bohr)
-----------------------------------------
C      0.000046     0.000086     0.000019 
C     -0.000057     0.000003     0.000026 
C     -0.000086    -0.000131     0.000042 
H      0.000061    -0.000025    -0.000026 
O     -0.000026     0.000005    -0.000047 
C      0.000041     0.000047     0.000008 
H      0.000010     0.000014    -0.000031 
H      0.000049    -0.000041     0.000039 
H     -0.000006    -0.000008     0.000008 
H      0.000015    -0.000020     0.000003 
H      0.000007    -0.000034     0.000004 
H     -0.000006    -0.000026     0.000029 
H     -0.000051     0.000089    -0.000025 
Cl     0.000003    -0.000033     0.000026 

-----------------------------------------
  UNIT TANGENT
-----------------------------------------
C      0.064008    -0.006143     0.055140 
C      0.087025     0.096708    -0.000909 
C      0.274736    -0.097069    -0.021298 
H     -0.012725    -0.051069     0.015512 
O      0.095403    -0.076754    -0.004138 
C     -0.017094    -0.085885    -0.022142 
H     -0.789612     0.168833     0.138938 
H      0.147743     0.120941    -0.004882 
H      0.026890     0.144753    -0.003442 
H      0.087629     0.080575     0.003568 
H     -0.082798    -0.025608    -0.035144 
H     -0.047750    -0.013527    -0.028160 
H     -0.042915    -0.230158     0.003692 
Cl     0.209460    -0.025597    -0.096735 
 => Unit tangent is an approximation to the TS mode at the saddle point

Next a TS optimization is performed on the CI from the NEB run.

         *************************************************************
         *                       TS OPTIMIZATION                     *
         *************************************************************


Following output files will be written:
Converged TS will be written to          ....  opt_NEB-TS_converged.xyz
                                         ....  opt.xyz
Current trajectory will be written to    ....  opt_trj.xyz
Initial Hessian will be stored in        ....  opt.appr.hess
 (Almloef) Geometry optimization settings:
Update method            Update   .... Bofill
Choice of coordinates    CoordSys .... (2022) Redundant Internals
Initial Hessian          InHess   .... Read
Max. no of cycles        MaxIter  .... 50

Convergence Tolerances:
Energy Change            TolE     ....  5.0000e-06 Eh
Max. Gradient            TolMAXG  ....  3.0000e-04 Eh/bohr
RMS Gradient             TolRMSG  ....  1.0000e-04 Eh/bohr
Max. Displacement        TolMAXD  ....  4.0000e-03 bohr
RMS Displacement         TolRMSD  ....  2.0000e-03 bohr
Strict Convergence                .... False

------------------------------------------------------------------------------
                        ORCA OPTIMIZATION COORDINATE SETUP
------------------------------------------------------------------------------

The optimization will be done in redundant internal coordinates (2022)
Making redundant internal coordinates   ...  (2022 redundants) done
Following TS mode number                ...     0
TS-active-atoms for coordinate setup... 6 
Evaluating the initial hessian          ... (Reading Exact Hessian)...  
InHessName: opt.appr.hess	The file <opt.appr.hess> is opened as a .hess file
done
done
Evaluating the coordinates              ...  done
Calculating the B-matrix                .... done
Calculating the G-matrix                .... done
The number of degrees of freedom        ....   66

    -----------------------------------------------------------------
                    Redundant Internal Coordinates


    -----------------------------------------------------------------
         Definition                    Initial Value    d2E/dq (diagonal element)
    -----------------------------------------------------------------
      1. B(C   1,C   0)                  1.4972         0.463750   
      2. B(C   2,C   0)                  1.4574         0.454051   
      3. B(H   3,C   0)                  1.0851         0.367094   
      4. B(O   4,C   2)                  1.3697         0.234406   
      5. B(O   4,C   0)                  1.4768         0.260272   
      6. B(C   5,C   2)                  1.4929         0.474771   
      7. B(H   6,C   2)                  1.2980         0.078224   
      8. B(H   6,O   4)                  2.2162         0.062364   
      9. B(H   7,C   1)                  1.0893         0.362087   
     10. B(H   8,C   1)                  1.0914         0.363739   
     11. B(H   9,C   1)                  1.0922         0.357391   
     12. B(H  10,C   5)                  1.0904         0.361918   
     13. B(H  11,C   5)                  1.0896         0.360588   
     14. B(H  12,C   5)                  1.0922         0.357127   
     15. B(Cl 13,H   6)                  1.5310         0.107356   
     16. A(H   3,C   0,O   4)          111.9847         0.051441   
     17. A(C   1,C   0,H   3)          116.9968         0.175483   
     18. A(C   1,C   0,C   2)          123.7922         0.233083   
     19. A(C   2,C   0,H   3)          116.2779         0.099432   
     20. A(C   1,C   0,O   4)          115.9025         0.069167   
     21. A(C   2,C   0,O   4)           55.6487         0.046596   
     22. A(C   0,C   1,H   8)          110.2448         0.271656   
     23. A(C   0,C   1,H   7)          111.3956         0.299798   
     24. A(H   8,C   1,H   9)          108.0460         0.229622   
     25. A(H   7,C   1,H   9)          108.8229         0.212088   
     26. A(C   0,C   1,H   9)          109.6363         0.229739   
     27. A(H   7,C   1,H   8)          108.6177         0.119200   
     28. A(C   0,C   2,O   4)           62.8923         0.063139   
     29. A(C   5,C   2,H   6)          108.2547         0.095960   
     30. A(O   4,C   2,H   6)          112.3230         0.038679   
     31. A(C   0,C   2,H   6)          110.6947         0.064202   
     32. A(O   4,C   2,C   5)          122.3391         0.047895   
     33. A(C   0,C   2,C   5)          133.2951         0.120569   
     34. A(C   0,O   4,C   2)           61.4590         0.092196   
     35. A(H  11,C   5,H  12)          109.5419         0.139021   
     36. A(H  10,C   5,H  12)          108.7579         0.144347   
     37. A(C   2,C   5,H  12)          110.1362         0.292425   
     38. A(H  10,C   5,H  11)          108.8060         0.112255   
     39. A(C   2,C   5,H  11)          109.8677         0.239173   
     40. A(C   2,C   5,H  10)          109.7039         0.245443   
     41. L(C   2,H   6,Cl 13,C   5, 2) 186.1770         0.237628   
     42. L(C   2,H   6,Cl 13,C   5, 1) 178.2937         0.247335   
     43. D(H   8,C   1,C   0,C   2)   -141.8911         0.026015   
     44. D(H   7,C   1,C   0,H   3)    178.9154         0.025975   
     45. D(H   8,C   1,C   0,O   4)    -77.3457         0.034371   
     46. D(H   7,C   1,C   0,O   4)     43.3158         0.034650   
     47. D(H   8,C   1,C   0,H   3)     58.2539         0.023577   
     48. D(H   7,C   1,C   0,C   2)    -21.2296         0.026849   
     49. D(O   4,C   2,C   0,C   1)    100.3277         0.029649   
     50. D(H   6,C   2,C   0,H   3)      5.5482         0.027700   
     51. D(H   6,C   2,C   0,C   1)   -154.4387         0.027273   
     52. D(C   5,C   2,C   0,O   4)   -110.0815         0.028424   
     53. D(C   5,C   2,C   0,H   3)    150.2330         0.018201   
     54. D(C   5,C   2,C   0,C   1)     -9.7538         0.018313   
     55. D(O   4,C   2,C   0,H   3)    -99.6855         0.023916   
     56. D(C   2,O   4,C   0,H   3)    107.6005         0.091884   
     57. D(C   2,O   4,C   0,C   1)   -114.6455         0.219619   
     58. D(C   0,O   4,C   2,H   6)   -102.6489         0.070519   
     59. D(C   0,O   4,C   2,C   5)    125.9946         0.124656   
     60. D(H  12,C   5,C   2,C   0)     27.5503         0.061628   
     61. D(H  11,C   5,C   2,O   4)   -174.8954         0.035331   
     62. D(H  11,C   5,C   2,C   0)    -93.2014         0.026993   
     63. D(H  10,C   5,C   2,H   6)    -67.4827         0.031981   
     64. D(H  11,C   5,C   2,H   6)     52.0880         0.020603   
     65. D(H  10,C   5,C   2,O   4)     65.5339         0.030061   
     66. D(H  10,C   5,C   2,C   0)    147.2279         0.026321   
    -----------------------------------------------------------------

Number of atoms                         .... 14
Number of degrees of freedom            .... 66


         *************************************************************
         *                GEOMETRY OPTIMIZATION CYCLE   1            *
         *************************************************************


           ************************************************************
           *        Program running with 8 parallel MPI-processes     *
           *              working on a common directory               *
           ************************************************************
------------------------------------------------------------------------------
                             ORCA STARTUP CALCULATIONS
                           -- RI-GTO INTEGRALS CHOSEN --
------------------------------------------------------------------------------
------------------------------------------------------------------------------
                   ___                                                        
                  /   \      - P O W E R E D   B Y -                         
                 /     \                                                     
                 |  |  |   _    _      __       _____    __    __             
                 |  |  |  | |  | |    /  \     |  _  \  |  |  /  |          
                  \  \/   | |  | |   /    \    | | | |  |  | /  /          
                 / \  \   | |__| |  /  /\  \   | |_| |  |  |/  /          
                |  |  |   |  __  | /  /__\  \  |    /   |      \           
                |  |  |   | |  | | |   __   |  |    \   |  |\   \          
                \     /   | |  | | |  |  |  |  | |\  \  |  | \   \       
                 \___/    |_|  |_| |__|  |__|  |_| \__\ |__|  \__/        
                                                                              
                      - O R C A' S   B I G   F R I E N D -                    
                                      &                                       
                       - I N T E G R A L  F E E D E R -                       
                                                                              
 v1 FN, 2020, v2 2021, v3 2022-2024                                           
------------------------------------------------------------------------------


----------------------
SHARK INTEGRAL PACKAGE
----------------------

Number of atoms                             ...     14
Number of basis functions                   ...    309
Number of shells                            ...    117
Maximum angular momentum                    ...      3
Integral batch strategy                     ... SHARK/LIBINT Hybrid
RI-J (if used) integral strategy            ... SPLIT-RIJ (Revised 2003 algorithm where possible)
Printlevel                                  ...      1
Contraction scheme used                     ... SEGMENTED contraction
Prescreening option                         ... SCHWARTZ
   Thresh                                   ... 2.500e-11
   Tcut                                     ... 2.500e-12
   Tpresel                                  ... 2.500e-12 
Coulomb Range Separation                    ... NOT USED
Exchange Range Separation                   ... NOT USED
Multipole approximations                    ... NOT USED
Finite Nucleus Model                        ... NOT USED
CABS basis                                  ... NOT available
Auxiliary Coulomb fitting basis             ... AVAILABLE
   # of basis functions in Aux-J            ...    384
   # of shells in Aux-J                     ...    132
   Maximum angular momentum in Aux-J        ...      4
Auxiliary J/K fitting basis                 ... NOT available
Auxiliary Correlation fitting basis         ... AVAILABLE
   # of basis functions in Aux-C            ...    743
   # of shells in Aux-C                     ...    223
   Maximum angular momentum in Aux-C        ...      4
Auxiliary 'external' fitting basis          ... NOT available

Checking pre-screening integrals            ... done (  0.0 sec) Dimension = 117
   => SHARK Basis and OBASIS are compatible. Storing Pre-screening
Shell pair information
Shell pair cut-off parameter TPreSel        ...   2.5e-12
Total number of shell pairs                 ...      6903
Shell pairs after pre-screening             ...      6261
Total number of primitive shell pairs       ...     18505
Primitive shell pairs kept                  ...     13103
          la=0 lb=0:   1336 shell pairs
          la=1 lb=0:   1768 shell pairs
          la=1 lb=1:    615 shell pairs
          la=2 lb=0:   1001 shell pairs
          la=2 lb=1:    680 shell pairs
          la=2 lb=2:    208 shell pairs
          la=3 lb=0:    307 shell pairs
          la=3 lb=1:    206 shell pairs
          la=3 lb=2:    119 shell pairs
          la=3 lb=3:     21 shell pairs

Checking whether 4 symmetric matrices of dimension 309 fit in memory
:Max Core in MB      =  10000.00
 MB in use           =     12.64
 MB left             =   9987.36
 MB needed           =      1.46
 Data fit in memory  = YES
Calculating RI/J V-Matrix + Cholesky decomp.... done (  0.1 sec)
Calculating RI/C V-Matrix + Cholesky decomp.... done (  0.0 sec)
Calculating Nuclear repulsion               ... done (  0.0 sec) ENN=    283.062284980175 Eh

Diagonalization of the overlap matrix:
Smallest eigenvalue                        ... 1.100e-04
Time for diagonalization                   ...    0.031 sec
Threshold for overlap eigenvalues          ... 1.000e-07
Number of eigenvalues below threshold      ... 0
Time for construction of square roots      ...    0.049 sec
Total time needed                          ...    0.081 sec

-------------------
DFT GRID GENERATION
-------------------

General Integration Accuracy     IntAcc      ... 4.388
Radial Grid Type                 RadialGrid  ... OptM3 with GC (2021)
Angular Grid (max. ang.)         AngularGrid ... 4 (Lebedev-302)
Angular grid pruning method      GridPruning ... 4 (adaptive)
Weight generation scheme         WeightScheme... mBecke (2022)
Basis function cutoff            BFCut       ... 1.0000e-11
Integration weight cutoff        WCut        ... 1.0000e-14
Partially contracted basis set               ... off
Rotationally invariant grid construction     ... off
Angular grids for H and He will be reduced by one unit

Total number of grid points                  ...    63326
Total number of batches                      ...      996
Average number of points per batch           ...       63
Average number of grid points per atom       ...     4523

--------------------
COSX GRID GENERATION
--------------------

GRIDX 1
-------
General Integration Accuracy     IntAcc      ... 3.816
Radial Grid Type                 RadialGrid  ... OptM3 with GC (2021)
Angular Grid (max. ang.)         AngularGrid ... 1 (Lebedev-50)
Angular grid pruning method      GridPruning ... 4 (adaptive)
Weight generation scheme         WeightScheme... mBecke (2022)
Basis function cutoff            BFCut       ... 1.0000e-11
Integration weight cutoff        WCut        ... 1.0000e-14
Partially contracted basis set               ... on
Rotationally invariant grid construction     ... off
Angular grids for H and He will be reduced by one unit

Total number of grid points                  ...     9169
Total number of batches                      ...       79
Average number of points per batch           ...      116
Average number of grid points per atom       ...      655
UseSFitting                                  ... on

GRIDX 2
-------
General Integration Accuracy     IntAcc      ... 4.020
Radial Grid Type                 RadialGrid  ... OptM3 with GC (2021)
Angular Grid (max. ang.)         AngularGrid ... 2 (Lebedev-110)
Angular grid pruning method      GridPruning ... 4 (adaptive)
Weight generation scheme         WeightScheme... mBecke (2022)
Basis function cutoff            BFCut       ... 1.0000e-11
Integration weight cutoff        WCut        ... 1.0000e-14
Partially contracted basis set               ... on
Rotationally invariant grid construction     ... off
Angular grids for H and He will be reduced by one unit

Total number of grid points                  ...    17147
Total number of batches                      ...      143
Average number of points per batch           ...      119
Average number of grid points per atom       ...     1225
UseSFitting                                  ... on

GRIDX 3
-------
General Integration Accuracy     IntAcc      ... 4.338
Radial Grid Type                 RadialGrid  ... OptM3 with GC (2021)
Angular Grid (max. ang.)         AngularGrid ... 3 (Lebedev-194)
Angular grid pruning method      GridPruning ... 4 (adaptive)
Weight generation scheme         WeightScheme... mBecke (2022)
Basis function cutoff            BFCut       ... 1.0000e-11
Integration weight cutoff        WCut        ... 1.0000e-14
Partially contracted basis set               ... on
Rotationally invariant grid construction     ... off
Angular grids for H and He will be reduced by one unit

Total number of grid points                  ...    38170
Total number of batches                      ...      305
Average number of points per batch           ...      125
Average number of grid points per atom       ...     2726
UseSFitting                                  ... on
Grids setup in   0.6 sec
Initializing property integral containers    ... done (  0.0 sec)

SHARK setup successfully completed in   1.3 seconds

Maximum memory used throughout the entire STARTUP-calculation: 26.5 MB


           ************************************************************
           *        Program running with 8 parallel MPI-processes     *
           *              working on a common directory               *
           ************************************************************
-------------------------------------------------------------------------------
                                 ORCA GUESS
                   Start orbitals & Density for SCF / CASSCF
-------------------------------------------------------------------------------

------------
SCF SETTINGS
------------
Hamiltonian:
 Density Functional     Method          .... DFT(GTOs)
 Exchange Functional    Exchange        .... PBE
   PBE kappa parameter   XKappa         ....  0.804000
   PBE mue parameter    XMuePBE         ....  0.219520
 Correlation Functional Correlation     .... P86
 LDA part of GGA corr.  LDAOpt          .... VWN-5
 Gradients option       PostSCFGGA      .... off
 Hybrid DFT is turned on
   Fraction HF Exchange ScalHFX         ....  0.690000
   Scaling of DF-GGA-X  ScalDFX         ....  0.310000
   Scaling of DF-GGA-C  ScalDFC         ....  0.422400
   Scaling of DF-LDA-C  ScalLDAC        ....  0.422400
   Perturbative correction              ....  1.000000
 RI-approximation to the Coulomb term is turned on
   Number of AuxJ basis functions       .... 384
   RIJ-COSX (HFX calculated with COS-X)).... on


General Settings:
 Integral files         IntName         .... opt
 Hartree-Fock type      HFTyp           .... UHF
 Total Charge           Charge          ....    0
 Multiplicity           Mult            ....    2
 Number of Electrons    NEL             ....   57
 Basis Dimension        Dim             ....  309
 Nuclear Repulsion      ENuc            ....    283.0622849802 Eh

Convergence Acceleration:
 AO-DIIS                CNVDIIS         .... on
   Start iteration      DIISMaxIt       ....    12
   Startup error        DIISStart       ....  0.200000
   # of expansion vecs  DIISMaxEq       ....     5
   Bias factor          DIISBfac        ....   1.050
   Max. coefficient     DIISMaxC        ....  10.000
 MO-DIIS                CNVKDIIS        .... off
 Trust-Rad. Augm. Hess. CNVTRAH         .... auto
   Auto Start mean grad. ratio tolernc. ....  1.125000
   Auto Start start iteration           ....     1
   Auto Start num. interpolation iter.  ....    10
   Max. Number of Micro iterations      ....    24
   Max. Number of Macro iterations      .... Maxiter - #DIIS iter
   Number of Davidson start vectors     ....     2
   Converg. threshold    (grad. norm)   ....   1.000e-05
   Grad. Scal. Fac. for Micro threshold ....   0.100
   Minimum threshold for Micro iter.    ....   1.000e-02
   NR start threshold (gradient norm)   ....   1.000e-04
   Initial trust radius                 ....   0.400
   Minimum AH scaling param. (alpha)    ....   1.000
   Maximum AH scaling param. (alpha)    .... 1000.000
   Quad. conv. algorithm                .... NR
   White noise on init. David. guess    .... on
   Maximum white noise                  ....   0.010
   Pseudo random numbers                .... off
   Inactive MOs                         .... canonical
   Orbital update algorithm             .... Taylor
   Preconditioner                       .... Diag
   Full preconditioner red. dimension   ....   250
 SOSCF                 CNVSOSCF           .... on
   Start iteration     SOSCFMaxIt         ....   150
   Startup grad/error  SOSCFStart         ....  0.003300
   Hessian update      SOSCFHessUp        .... L-BFGS
   Autom. constraints  SOSCFAutoConstrain .... off
 Level Shifting         CNVShift        .... on
   Level shift para.    LevelShift      ....    0.2500
   Turn off err/grad.   ShiftErr        ....    0.0010
 Zerner damping         CNVZerner       .... off
 Static damping         CNVDamp         .... on
   Fraction old density DampFac         ....    0.7000
   Max. Damping (<1)    DampMax         ....    0.9800
   Min. Damping (>=0)   DampMin         ....    0.0000
   Turn off err/grad.   DampErr         ....    0.1000

SCF Procedure:
 Maximum # iterations   MaxIter         ....   125
 SCF integral mode      SCFMode         .... Direct
   Integral package                     .... SHARK and LIBINT hybrid scheme
 Reset frequency        DirectResetFreq ....    20
 Integral Threshold     Thresh          ....  2.500e-11 Eh
 Primitive CutOff       TCut            ....  2.500e-12 Eh

Convergence Tolerance:
 Convergence Check Mode ConvCheckMode   .... Total+1el-Energy
 Convergence forced     ConvForced      .... 0
 Energy Change          TolE            ....  1.000e-08 Eh
 1-El. energy change                    ....  1.000e-05 Eh
 Orbital Gradient       TolG            ....  1.000e-05
 Orbital Rotation angle TolX            ....  1.000e-05
 DIIS Error             TolErr          ....  5.000e-07

---------------------
INITIAL GUESS: MOREAD
---------------------
Guess MOs are being read from file: opt.gbw
Input Geometry matches current geometry (good)
Input basis set matches current basis set (good)
MOs were renormalized
MOs were reorthogonalized (Cholesky)
                      ------------------
                      INITIAL GUESS DONE (   0.0 sec)
                      ------------------
             **** ENERGY FILE WAS UPDATED (opt.en.tmp) ****
Finished Guess after   0.6 sec
Maximum memory used throughout the entire GUESS-calculation: 18.5 MB


           ************************************************************
           *        Program running with 8 parallel MPI-processes     *
           *              working on a common directory               *
           ************************************************************

-------------------------------------------------------------------------------------------
                                      ORCA LEAN-SCF
                              memory conserving SCF solver
-------------------------------------------------------------------------------------------

----------------------------------------D-I-I-S--------------------------------------------
Iteration    Energy (Eh)           Delta-E    RMSDP     MaxDP     DIISErr   Damp  Time(sec)
-------------------------------------------------------------------------------------------
               ***  Starting incremental Fock matrix formation  ***
                              *** Initializing SOSCF ***
---------------------------------------S-O-S-C-F--------------------------------------
Iteration    Energy (Eh)           Delta-E    RMSDP     MaxDP     MaxGrad    Time(sec)
--------------------------------------------------------------------------------------
    1    -691.3249505134346009     0.00e+00  2.07e-07  3.27e-06  8.17e-07     1.6
               *** Restarting incremental Fock matrix formation ***
    2    -691.3249505136080870    -1.73e-10  9.24e-08  1.22e-06  1.72e-06     1.3
                  *** Gradient check signals convergence ***

               *****************************************************
               *                     SUCCESS                       *
               *           SCF CONVERGED AFTER   2 CYCLES          *
               *****************************************************

Recomputing exchange energy using gridx3       ... done (    1.866 sec)
Old exchange energy                            :    -40.945682976 Eh
New exchange energy                            :    -40.945668297 Eh
Exchange energy change after final integration :      0.000014680 Eh
Total energy after final integration           :   -691.324935828 Eh
             **** ENERGY FILE WAS UPDATED (opt.en.tmp) ****

----------------
TOTAL SCF ENERGY
----------------

Total Energy       :       -691.32493582828988 Eh          -18811.90788 eV

Components:
Nuclear Repulsion  :        283.06228498017538 Eh            7702.51636 eV
Electronic Energy  :       -974.38723548809935 Eh          -26514.42464 eV
One Electron Energy:      -1510.85622874917954 Eh          -41112.48810 eV
Two Electron Energy:        536.46899326108019 Eh           14598.06346 eV

Virial components:
Potential Energy   :      -1381.72023648783625 Eh          -37598.51911 eV
Kinetic Energy     :        690.39530065954636 Eh           18786.61122 eV
Virial Ratio       :          2.00134652592197

DFT components:
N(Alpha)           :       28.999970586033 electrons
N(Beta)            :       27.999965078676 electrons
N(Total)           :       56.999935664709 electrons
E(X)               :      -18.306854301216 Eh       
E(C)               :       -0.930598528968 Eh       
E(XC)              :      -19.237452830184 Eh       

---------------
SCF CONVERGENCE
---------------

  Last Energy change         ...    1.7349e-10  Tolerance :   1.0000e-08
  Last MAX-Density change    ...    1.2214e-06  Tolerance :   1.0000e-07
  Last RMS-Density change    ...    9.2428e-08  Tolerance :   5.0000e-09
  Last DIIS Error            ...    3.0641e-06  Tolerance :   5.0000e-07
  Last Orbital Gradient      ...    1.7198e-06  Tolerance :   1.0000e-05
  Last Orbital Rotation      ...    3.7870e-06  Tolerance :   1.0000e-05


----------------------
UHF SPIN CONTAMINATION
----------------------

Warning: in a DFT calculation there is little theoretical justification to 
         calculate <S**2> as in Hartree-Fock theory. We will do it anyways
         but you should keep in mind that the values have only limited relevance

Expectation value of <S**2>     :     0.771106
Ideal value S*(S+1) for S=0.5   :     0.750000
Deviation                       :     0.021106

----------------
ORBITAL ENERGIES
----------------
                 SPIN UP ORBITALS
  NO   OCC          E(Eh)            E(eV) 
   0   1.0000    -103.526515     -2817.0997 
   1   1.0000     -20.056458      -545.7640 
   2   1.0000     -10.923647      -297.2475 
   3   1.0000     -10.904410      -296.7241 
   4   1.0000     -10.839715      -294.9636 
   5   1.0000     -10.834180      -294.8130 
   6   1.0000     -10.112438      -275.1734 
   7   1.0000      -7.696774      -209.4399 
   8   1.0000      -7.683323      -209.0738 
   9   1.0000      -7.683294      -209.0730 
  10   1.0000      -1.334997       -36.3271 
  11   1.0000      -0.981114       -26.6975 
  12   1.0000      -0.949133       -25.8272 
  13   1.0000      -0.937652       -25.5148 
  14   1.0000      -0.815646       -22.1948 
  15   1.0000      -0.731405       -19.9026 
  16   1.0000      -0.675248       -18.3744 
  17   1.0000      -0.597155       -16.2494 
  18   1.0000      -0.579570       -15.7709 
  19   1.0000      -0.552613       -15.0374 
  20   1.0000      -0.529283       -14.4025 
  21   1.0000      -0.526881       -14.3372 
  22   1.0000      -0.501101       -13.6357 
  23   1.0000      -0.488225       -13.2853 
  24   1.0000      -0.447126       -12.1669 
  25   1.0000      -0.419758       -11.4222 
  26   1.0000      -0.392511       -10.6808 
  27   1.0000      -0.391365       -10.6496 
  28   1.0000      -0.340650        -9.2696 
  29   0.0000       0.090952         2.4749 
  30   0.0000       0.121830         3.3152 
  31   0.0000       0.132404         3.6029 
  32   0.0000       0.148824         4.0497 
  33   0.0000       0.155002         4.2178 
  34   0.0000       0.163430         4.4472 
  35   0.0000       0.172683         4.6989 
  36   0.0000       0.187136         5.0922 
  37   0.0000       0.199114         5.4182 
  38   0.0000       0.206266         5.6128 
  39   0.0000       0.227622         6.1939 

                 SPIN DOWN ORBITALS
  NO   OCC          E(Eh)            E(eV) 
   0   1.0000    -103.520741     -2816.9426 
   1   1.0000     -20.051344      -545.6248 
   2   1.0000     -10.911042      -296.9045 
   3   1.0000     -10.904465      -296.7256 
   4   1.0000     -10.839237      -294.9506 
   5   1.0000     -10.834216      -294.8140 
   6   1.0000     -10.107092      -275.0280 
   7   1.0000      -7.680197      -208.9888 
   8   1.0000      -7.680162      -208.9878 
   9   1.0000      -7.675357      -208.8571 
  10   1.0000      -1.322723       -35.9931 
  11   1.0000      -0.947907       -25.7938 
  12   1.0000      -0.940310       -25.5871 
  13   1.0000      -0.919666       -25.0254 
  14   1.0000      -0.801595       -21.8125 
  15   1.0000      -0.711550       -19.3622 
  16   1.0000      -0.637522       -17.3479 
  17   1.0000      -0.587832       -15.9957 
  18   1.0000      -0.567186       -15.4339 
  19   1.0000      -0.548024       -14.9125 
  20   1.0000      -0.524944       -14.2844 
  21   1.0000      -0.517999       -14.0955 
  22   1.0000      -0.483162       -13.1475 
  23   1.0000      -0.471081       -12.8188 
  24   1.0000      -0.415792       -11.3143 
  25   1.0000      -0.400113       -10.8876 
  26   1.0000      -0.382317       -10.4034 
  27   1.0000      -0.381241       -10.3741 
  28   0.0000      -0.056608        -1.5404 
  29   0.0000       0.091824         2.4987 
  30   0.0000       0.122490         3.3331 
  31   0.0000       0.134542         3.6611 
  32   0.0000       0.151204         4.1145 
  33   0.0000       0.155702         4.2369 
  34   0.0000       0.166271         4.5245 
  35   0.0000       0.173965         4.7338 
  36   0.0000       0.191241         5.2039 
  37   0.0000       0.202305         5.5050 
  38   0.0000       0.208875         5.6838 
*Only the first 10 virtual orbitals were printed.
-------
TIMINGS
-------

Total SCF time: 0 days 0 hours 0 min 6 sec 

Total time                  ....       6.055 sec
Sum of individual times     ....       5.402 sec  ( 89.2%)

SCF preparation             ....       0.582 sec  (  9.6%)
Fock matrix formation       ....       4.580 sec  ( 75.6%)
  Startup                   ....       0.010 sec  (  0.2% of F)
  Split-RI-J                ....       0.377 sec  (  8.2% of F)
  Chain of spheres X        ....       4.064 sec  ( 88.7% of F)
  XC integration            ....       0.662 sec  ( 14.4% of F)
    Basis function eval.    ....       0.125 sec  ( 18.8% of XC)
    Density eval.           ....       0.173 sec  ( 26.1% of XC)
    XC-Functional eval.     ....       0.026 sec  (  3.9% of XC)
    XC-Potential eval.      ....       0.247 sec  ( 37.4% of XC)
Diagonalization             ....       0.000 sec  (  0.0%)
Density matrix formation    ....       0.027 sec  (  0.5%)
Total Energy calculation    ....       0.013 sec  (  0.2%)
Population analysis         ....       0.002 sec  (  0.0%)
Orbital Transformation      ....       0.049 sec  (  0.8%)
Orbital Orthonormalization  ....       0.000 sec  (  0.0%)
DIIS solution               ....       0.056 sec  (  0.9%)
SOSCF solution              ....       0.087 sec  (  1.4%)
Finished LeanSCF after   6.1 sec

Maximum memory used throughout the entire LEANSCF-calculation: 28.0 MB


           ************************************************************
           *        Program running with 8 parallel MPI-processes     *
           *              working on a common directory               *
           ************************************************************

------------------------------------------------------------------------------
                                ORCA  MP2 
------------------------------------------------------------------------------

Freezing NCore=20 chemical core electrons

----------------------
RI-MP2 ENERGY+GRADIENT
----------------------
Dimension of the orbital basis            ...  309
Dimension of the AuxC basis               ...  743
Memory devoted to MP2                     ... 10000 MB   
Data format for matrix containers         ... DOUBLE
Compression type for matrix containers    ... UNCOMPRESSED
Scaling for aa/bb pairs                   ...   5.660e-02
Scaling for ab pairs                      ...   5.935e-01
Overall scaling of the MP2 energy         ...   1.000e+00

-----------------------
SHARK RI TRANSFORMATION
-----------------------

Number of basis functions                ...    309
Number of aux functions                  ...    743
Number of operators                      ...      2
Generation of IJK                        ... YES
Generation of IAK                        ... YES
Generation of ABK                        ... NO
Orbital Range Operator  0:    0-  28 to   29- 308

Orbital Range Operator  1:    0-  27 to   28- 308

Aux basis identifier                     ...   AUXC
Contraction scheme used                  ... SEGMENTED
Do orthogonalization                     ... YES
All operator combinations                ... NO
Transpose (ia|K)                         ... NO
Integral generator used                  ... LIBINT
Starting integral generation + trafo... 
Half trafo (segmented) done. Total time =  0.3 sec. integrals=  0.2 sec trafo=  0.1 sec
Integral generation and half transformation done (  0.3 sec)

Reading or making V^(-1/2)          ... done (  0.0 sec)
Sorting IJK integrals               ... done (  0.0 sec)
Sorting IAK integrals               ... done (  0.1 sec)
Sorting IJK integrals               ... done (  0.1 sec)
Sorting IAK integrals               ... done (  0.2 sec)

SHARK RI integral transformation done. Total time =  0.5 sec.

Opening buffers                              ... done
Frozen core precalculation                   ... done

Starting loop over batches of integrals:

Operator 0  - window                       ... ( 10- 28)x( 29-308)
Operator 0  - Memory available             ... 10000 MB
Operator 0  - Memory needed per MO         ...   1.6 MB
Operator 0  - Number of orbitals per batch ... 3
Operator 0  - Number of batches            ... 1

OPERATOR  0   PASS   0:  MOs    10 ...   12 +   13 ...   15 +   16 ...   18 +   19 ...   21
                            +   22 ...   24 +   25 ...   27 +   28 ...   28
  Reading integrals       ... ok
  Internal MO  12
Closing buffer GIPV ( 0.03 GB; CompressionRatio= 1.00)

Operator 1  - window                       ... ( 10- 27)x( 28-308)
Operator 1  - Memory available             ... 10000 MB
Operator 1  - Memory needed per MO         ...   1.6 MB
Operator 1  - Number of orbitals per batch ... 3
Operator 1  - Number of batches            ... 1

OPERATOR  1   PASS   0:  MOs    10 ...   12 +   13 ...   15 +   16 ...   18 +   19 ...   21
                            +   22 ...   24 +   25 ...   27
  Reading integrals       ... ok
  Internal MO  12
Closing buffer GIPV ( 0.03 GB; CompressionRatio= 1.00)
Time spent in pair loops =     2.646 sec
Deleting buffers (Ka|jb) ...done

Spin-scaled correlation energy components}
 E2 for alpha/alpha pairs :     -0.008910217 Eh
 E2 for beta/beta   pairs :     -0.008552402 Eh
 E2 for alpha/beta  pairs :     -0.564451726 Eh


-----------------------------------------------
 RI-MP2 CORRELATION ENERGY:     -0.581914345 Eh
-----------------------------------------------


---------------------
MP2 DENSITY FORMATION
---------------------

Completing the external part of the density      ... done
Storing the unrelaxed density                    ... done

Re-sorting 3-index density container for op 0    ... done
Re-sorting 3-index density container for op 1    ... done
Computing external part of the Lagrangian        ... done
Calculating the xc-kernel                        ... done
Calculating G(D)                                 ... done
Completing the Lagrangian                        ... done
Solving the Z-vector equations                   ... Using XC Grid                  ... (opt.grid_cpscf.tmp) 
Recalculating density on grid  ... (opt.grho_cpscf0.tmp) done
Calculating the xc-kernel      ... (opt.fxc_cpscf0.tmp) done

-------------------
SHARK CP-SCF DRIVER
-------------------

Dimension of the orbital basis          ...    309
Dimension of the CPSCF-problem          ...  15988
Number of operators                     ...      2
Max. number of iterations               ...    128
Convergence Tolerance                   ... 1.0e-04
Number of perturbations                 ...      1
Perturbation type                       ... REAL

----------------------------
POPLE LINEAR EQUATION SOLVER
----------------------------

  ITERATION   0:   ||err||_max =   4.6229e-02 (   0.5 sec)
  ITERATION   1:   ||err||_max =   2.3716e-02 (   0.5 sec)
  ITERATION   2:   ||err||_max =   1.3826e-02 (   0.5 sec)
  ITERATION   3:   ||err||_max =   6.3130e-03 (   0.5 sec)
  ITERATION   4:   ||err||_max =   2.5518e-03 (   0.5 sec)
  ITERATION   5:   ||err||_max =   1.1185e-03 (   0.5 sec)
  ITERATION   6:   ||err||_max =   4.2735e-04 (   0.6 sec)
  ITERATION   7:   ||err||_max =   1.8363e-04 (   0.5 sec)
  ITERATION   8:   ||err||_max =   7.7945e-05 (   0.5 sec)
done
Finalizing the relaxed density                   ... done
Transforming P to the AO basis                   ... done
Storing the relaxed density                      ... done

------------------------------------
ENERGY WEIGHTED DENSITY FINALIZATION
------------------------------------

Gathering the parts of the W-matrix              ... done
Forming the Z-density                            ... done
Transforming Z to the AO basis                   ... done
Calculating G(Z)                                 ... done
Finalizing the W-matrix                          ... done
Transforming W to the AO basis and storing       ... done

----------------------------------
MP2 DERIVATIVE INTEGRAL GENERATION
----------------------------------

Input SCF Electron Density              ... opt.scfp
Input Correlated Electron Density       ... opt.pmp2re
Input Energy Weighted Density           ... opt.wmp2.tmp

Nuclear repulsion gradient              ... done (  0.0 sec)
HCore & Overlap gradient  (SHARK)       ... done (  0.1 sec)
Two-electron RIJ gradient terms         ... done (  0.6 sec)

-----------------------------------------------------------
MP2 COSX Grid Generation
-----------------------------------------------------------

General Integration Accuracy     IntAcc      ... 4.871
Radial Grid Type                 RadialGrid  ... OptM3 with GC (2021)
Angular Grid (max. ang.)         AngularGrid ... 4 (Lebedev-302)
Angular grid pruning method      GridPruning ... 4 (adaptive)
Weight generation scheme         WeightScheme... mBecke (2022)
Basis function cutoff            BFCut       ... 1.0000e-11
Integration weight cutoff        WCut        ... 1.0000e-14
Partially contracted basis set               ... on
Rotationally invariant grid construction     ... off
Angular grids for H and He will be reduced by one unit

Total number of grid points                  ...    73865
Total number of batches                      ...      583
Average number of points per batch           ...      126
Average number of grid points per atom       ...     5276
UseSFitting                                  ... on
Two-electron COSX gradient terms        ... 
Integration Timings:
Total Time                  =     5.8 sec
Basis fcn evaluation        =     0.1 sec
Density evaluation          =     0.2 sec
A evaluation                =     4.7 sec
A derivative evaluation     =     0.0 sec
S-fit derivative evaluation =     0.0 sec
anal. over. der. evaluation =     0.0 sec
num. over. der. evaluation  =     0.1 sec
K(P) evaluation             =     0.1 sec
finalize                    =     0.0 sec

done (  6.2 sec)
DFT XC gradient                         ... done (  1.4 sec)
Empirical dispersion gradient           ... done (  0.1 sec)

-------
TIMINGS
-------

Total time                :   20.990 sec
Integral trafo            :    0.564 sec (  2.7%)
FC preparation            :    0.410 sec (  2.0%)
I/O of integrals          :    0.179 sec (  0.9%)
K(i,j) operators          :    0.455 sec (  2.2%)
T(i,j) pair energies      :    0.090 sec (  0.4%)
V**(-1/2)                 :    0.130 sec (  0.6%)
Gamma(ia|P)               :    0.461 sec (  2.2%)
Gamma-Trafo               :    0.091 sec (  0.4%)
D(virtual)                :    0.087 sec (  0.4%)
D(internal)               :    0.617 sec (  2.9%)
W(virtual)                :    0.087 sec (  0.4%)
W(internal)               :    0.410 sec (  2.0%)
L(virtual)                :    0.228 sec (  1.1%)
L(internal)               :    0.016 sec (  0.1%)
XC kernel                 :    0.022 sec (  0.1%)
G(D)                      :    1.158 sec (  5.5%)
G(Z)                      :    1.172 sec (  5.6%)
Z-vector solution         :    4.927 sec ( 23.5%)
3-index derivative        :    0.823 sec (  3.9%)
2-index derivative        :    0.046 sec (  0.2%)
Fock matrix gradient      :    8.402 sec ( 40.0%)


---------------------------------------
MP2 TOTAL ENERGY:     -691.906850173 Eh
---------------------------------------

The final MP2 gradient
  0:  -0.00004637  -0.00008638  -0.00002003
  1:   0.00005679  -0.00000311  -0.00002596
  2:   0.00008458   0.00013128  -0.00004151
  3:  -0.00006110   0.00002549   0.00002607
  4:   0.00002665  -0.00000448   0.00004659
  5:  -0.00004121  -0.00004635  -0.00000791
  6:  -0.00000930  -0.00001437   0.00003087
  7:  -0.00004916   0.00004080  -0.00003888
  8:   0.00000573   0.00000847  -0.00000845
  9:  -0.00001497   0.00001974  -0.00000336
 10:  -0.00000677   0.00003364  -0.00000418
 11:   0.00000608   0.00002565  -0.00002886
 12:   0.00005164  -0.00008870   0.00002520
 13:  -0.00000288   0.00003271  -0.00002581

-----------------------------------
NORM OF THE MP2 GRADIENT:  0.000274
-----------------------------------

Maximum memory used throughout the entire MP2-calculation: 64.8 MB


-------------------------------------------------------------------------------
                          DFT DISPERSION CORRECTION                            
                                                                               
                                DFTD4 V3.4.0                                   
-------------------------------------------------------------------------------
The REV-DSD-PBEP86-2021 functional is recognized
A user input s6-coefficient scaling factor has been recognized
A user input a1-coefficient scaling factor has been recognized
A user input s8-coefficient scaling factor has been recognized
A user input a2-coefficient scaling factor has been recognized
A user input s9-coefficient scaling factor has been recognized
Active option DFTDOPT                   ...         5   

-------------------------   ----------------
Dispersion correction           -0.006606970
-------------------------   ----------------


-------------------------   --------------------
FINAL SINGLE POINT ENERGY      -691.913457143374
-------------------------   --------------------

------------------------------------------------------------------------------
                         ORCA GEOMETRY RELAXATION STEP
------------------------------------------------------------------------------

Reading the OPT-File                    .... done
Getting information on internals        .... done
Copying old internal coords+grads       .... done
Making the new internal coordinates     .... (2022 redundants) done
Validating the new internal coordinates .... (2022 redundants) done
Calculating the B-matrix                .... done
Calculating the G,G- and P matrices     .... done
Transforming gradient to internals      .... done
Projecting the internal gradient        .... done
Number of atoms                         ....  14
Number of internal coordinates          ....  66
Current Energy                          ....  -691.913457143 Eh
Current gradient norm                   ....     0.000274189 Eh/bohr
Maximum allowed component of the step   ....  0.300
Current trust radius                    ....  0.100
Evaluating the initial hessian          ....  (read) 
(Reading Exact Hessian)...  
InHessName: opt.appr.hess	The file <opt.appr.hess> is opened as a .hess file
done
done
Projecting the Hessian                  .... done
Diagonalizing the Hessian               .... done
Dimension of the hessian                ....  66
Lowest eigenvalues of the Hessian:
 -0.001835945  0.006073943  0.007300044  0.032003747  0.040214962
Hessian has   1 negative eigenvalues
Taking P-RFO step
Searching for lambda that maximizes along the lowest mode
TS mode is mode number   0 with eigenvalue  -0.00183594 and components:
   1.   -0.00031183
   2.    0.01982821
   3.    0.00218106
   4.    0.04871049
   5.   -0.04402043
   6.    0.02273649
   7.   -0.61016081
   8.   -0.43693323
   9.   -0.00180894
  10.    0.00038353
  11.   -0.00022458
  12.   -0.00017471
  13.    0.00102892
  14.   -0.00584229
  15.    0.57592589
  16.    0.00814524
  17.   -0.00905784
  18.    0.01406558
  19.   -0.01933273
  20.    0.00913763
  21.    0.02476283
  22.   -0.00597004
  23.    0.00045631
  24.   -0.00066775
  25.    0.00501227
  26.    0.00525266
  27.   -0.00406268
  28.   -0.03451624
  29.    0.06228869
  30.    0.01621037
  31.    0.05120972
  32.   -0.05298241
  33.   -0.08267211
  34.    0.00975341
  35.    0.00327798
  36.    0.00112355
  37.    0.01660614
  38.   -0.00465838
  39.   -0.00880458
  40.   -0.00768812
  41.    0.11272276
  42.   -0.02445351
  43.   -0.02981485
  44.    0.01302463
  45.    0.00821728
  46.   -0.00062936
  47.    0.02187127
  48.   -0.03866149
  49.    0.01788210
  50.   -0.04357949
  51.    0.00594316
  52.    0.08515041
  53.    0.05350986
  54.    0.10303251
  55.   -0.03164056
  56.   -0.02343349
  57.   -0.01794803
  58.   -0.04205404
  59.   -0.10390673
  60.   -0.07847893
  61.    0.05006414
  62.   -0.08750565
  63.    0.02250991
  64.    0.00659656
  65.    0.06597749
  66.   -0.07159230

Lambda that maximizes along the TS mode:       0.00000041
Searching for lambda that minimizes along all other modes
In cycle   1: lambdaN =  -0.00000035   step =   0.00000035
In cycle   2: lambdaN =  -0.00000035   step =   0.00000000
Lambda that minimizes along all other modes:  -0.00000035
The final length of the internal step   ....       0.0151
Converting the step to Cartesian space:
 Initial RMS(Int)=    0.0018553638
Transforming coordinates:
 Iter   0:  RMS(Cart)=    0.0013257719 RMS(Int)=    0.0018471608
 Iter   5:  RMS(Cart)=    0.0000058472 RMS(Int)=    0.0000031402
 Iter  10:  RMS(Cart)=    0.0000001855 RMS(Int)=    0.0000000996
done
Storing new coordinates                 .... done

                                .--------------------.
          ----------------------|Geometry convergence|-------------------------
          Item                value                   Tolerance       Converged
          ---------------------------------------------------------------------
          RMS gradient        0.0000391623            0.0001000000      YES
          MAX gradient        0.0001402718            0.0003000000      YES
          RMS step            0.0018553638            0.0020000000      YES
          MAX step            0.0091969558            0.0040000000      NO
          -------------------------------------------------------------------------
          ........................................................
[...]
     10      -0.005580  -0.008710  -0.056497   0.359772  -0.099210  -0.783309
     11      -0.000583   0.000608  -0.002495   0.015518  -0.004350  -0.033160
     12       0.000041   0.000130   0.000308  -0.000314  -0.000084   0.001006
     13      -0.000102   0.000351   0.000012  -0.000252  -0.000310   0.000023
     14       0.000065   0.000710  -0.000072   0.000043   0.000605  -0.000578
     15      -0.018460   0.005054  -0.084183  -0.013591   0.026834  -0.003949
     16       0.040877   0.001744  -0.024092  -0.004566  -0.017950   0.001918
     17      -0.009750   0.003807  -0.020744  -0.009794  -0.086116   0.007483
     18       0.004197  -0.001015   0.005857   0.000946  -0.002348   0.001080
     19      -0.000822   0.000681  -0.001174  -0.000645   0.000394   0.001546
     20      -0.001331   0.000317  -0.000280  -0.000506   0.000326   0.001472
     21       0.059718  -0.041517  -0.061327   0.320045  -0.009508   0.148668
     22      -0.143007   0.114296   0.139063  -0.713993   0.025239  -0.323900
     23      -0.018033  -0.005022   0.014126  -0.080299   0.002508  -0.034932
     24       0.125821  -0.396819   0.014057  -0.206209  -0.009137  -0.100837
     25       0.149473  -0.478225   0.011934  -0.225378  -0.011155  -0.108931
     26      -0.113526   0.334597  -0.013037   0.181361   0.007802   0.086942
     27      -0.001509   0.006261   0.000880   0.002045   0.000139  -0.004617
     28       0.064985   0.177701   0.018756  -0.036384   0.002624  -0.025772
     29       0.258149   0.664900   0.084447  -0.199700   0.012670  -0.127236
     30      -0.206662  -0.022059   0.267002   0.059136   0.225911  -0.022563
     31      -0.280517  -0.032066   0.403142   0.087633   0.306590  -0.029703
     32      -0.326658  -0.035632   0.459368   0.098883   0.336204  -0.032356
     33      -0.204739   0.003985   0.110687  -0.009961  -0.376302   0.033898
     34      -0.058933   0.000932   0.036519  -0.003120  -0.122788   0.011563
     35       0.390974  -0.005938  -0.256235   0.011962   0.727629  -0.065430
     36       0.634255  -0.043393   0.637084   0.117767  -0.175084   0.034864
     37      -0.141432   0.009511  -0.154807  -0.029515   0.036735  -0.008012
     38       0.050265  -0.003373   0.046664   0.007480  -0.031953   0.004682
     39      -0.000032  -0.000052  -0.000064  -0.000000  -0.000009   0.000103
     40      -0.000006  -0.000066   0.000001   0.000019   0.000002  -0.000045
     41      -0.000014  -0.000031  -0.000004   0.000032   0.000016   0.000019


-----------
IR SPECTRUM
-----------

 Mode   freq       eps      Int      T**2         TX        TY        TZ
       cm**-1   L/(mol*cm) km/mol    a.u.
----------------------------------------------------------------------------
  7:     52.01   0.000412    2.08  0.002469  (-0.045368 -0.002039 -0.020169)
  8:     95.78   0.000606    3.06  0.001975  (-0.021548  0.037434 -0.010462)
  9:    163.18   0.000061    0.31  0.000117  ( 0.004533 -0.006350 -0.007479)
 10:    218.67   0.000152    0.77  0.000217  ( 0.013640  0.001233 -0.005435)
 11:    255.24   0.000218    1.10  0.000266  ( 0.000895  0.008613 -0.013824)
 12:    290.65   0.016533   83.55  0.017752  (-0.131879  0.016339  0.009619)
 13:    368.69   0.001118    5.65  0.000946  ( 0.025376  0.016290  0.006088)
 14:    441.76   0.001158    5.85  0.000818  (-0.005132  0.013471 -0.024695)
 15:    562.01   0.001030    5.20  0.000572  ( 0.012124  0.020605 -0.000471)
 16:    758.36   0.003470   17.54  0.001428  ( 0.017303  0.022604  0.024852)
 17:    812.53   0.001865    9.42  0.000716  (-0.015417 -0.002947  0.021676)
 18:    922.40   0.000891    4.50  0.000301  (-0.013236 -0.007969 -0.007922)
 19:    937.00   0.003152   15.93  0.001050  (-0.008453  0.005559  0.030780)
 20:   1007.87   0.001075    5.43  0.000333  ( 0.009186 -0.010075  0.012120)
 21:   1026.22   0.009774   49.39  0.002972  ( 0.046140  0.027946 -0.007887)
 22:   1095.20   0.003041   15.37  0.000867  (-0.028045  0.003765  0.008113)
 23:   1115.40   0.003017   15.25  0.000844  (-0.022821  0.002189 -0.017846)
 24:   1146.71   0.000881    4.45  0.000240  ( 0.014158  0.003531 -0.005176)
 25:   1165.18   0.012274   62.03  0.003287  ( 0.047056 -0.013269 -0.029946)
 26:   1225.55   0.001620    8.19  0.000413  (-0.012769 -0.007597  0.013851)
 27:   1365.63   0.002843   14.37  0.000650  (-0.023532 -0.006537  0.007291)
 28:   1410.26   0.002210   11.17  0.000489  ( 0.013145  0.016690 -0.006132)
 29:   1421.19   0.001584    8.01  0.000348  ( 0.017495 -0.004922  0.004194)
 30:   1480.51   0.001303    6.58  0.000275  ( 0.005507 -0.012104 -0.009886)
 31:   1483.51   0.000616    3.12  0.000130  ( 0.005221  0.007514  0.006778)
 32:   1495.86   0.000235    1.19  0.000049  (-0.002671 -0.006403 -0.000943)
 33:   1505.40   0.003109   15.71  0.000645  ( 0.010652 -0.002456 -0.022914)
 34:   1541.54   0.002504   12.65  0.000507  (-0.000262 -0.009028  0.020622)
 35:   3051.79   0.001502    7.59  0.000154  ( 0.008753  0.006821  0.005520)
 36:   3057.76   0.001902    9.61  0.000194  (-0.010900  0.007226 -0.004808)
 37:   3126.92   0.001728    8.73  0.000172  ( 0.006771  0.003291 -0.010760)
 38:   3134.02   0.001278    6.46  0.000127  (-0.008936 -0.006350 -0.002661)
 39:   3147.03   0.000745    3.77  0.000074  (-0.002145  0.008054 -0.002101)
 40:   3156.63   0.000781    3.95  0.000077  ( 0.002987  0.000015 -0.008262)
 41:   3167.35   0.002651   13.40  0.000261  (-0.001474  0.015555  0.004126)

* The epsilon (eps) is given for a Dirac delta lineshape.
** The dipole moment derivative (T) already includes vibrational overlap.

The first frequency considered to be a vibration is 7
The total number of vibrations considered is 35


--------------------------
THERMOCHEMISTRY AT 298.15K
--------------------------

Temperature         ...   298.15 K
Pressure            ...     1.00 atm
Total Mass          ...   107.56 AMU
Quasi RRHO          ...     True
Cut-Off Frequency   ...     1.00 cm^-1

Throughout the following assumptions are being made:
  (1) The electronic state is orbitally nondegenerate
      but the spin degeneracy is treated
  (2) There are no thermally accessible electronically excited states
  (3) Hindered rotations indicated by low frequency modes are not
      treated as such but are treated as vibrations and this may
      cause some error
  (4) All equations used are the standard statistical mechanics
      equations for an ideal gas
  (5) All vibrations are strictly harmonic

freq.      52.01  E(vib)   ...       0.52 
freq.      95.78  E(vib)   ...       0.47 
freq.     163.18  E(vib)   ...       0.39 
freq.     218.67  E(vib)   ...       0.33 
freq.     255.24  E(vib)   ...       0.30 
freq.     290.65  E(vib)   ...       0.27 
freq.     368.69  E(vib)   ...       0.21 
freq.     441.76  E(vib)   ...       0.17 
freq.     562.01  E(vib)   ...       0.11 
freq.     758.36  E(vib)   ...       0.06 
freq.     812.53  E(vib)   ...       0.05 
freq.     922.40  E(vib)   ...       0.03 
freq.     937.00  E(vib)   ...       0.03 
freq.    1007.87  E(vib)   ...       0.02 
freq.    1026.22  E(vib)   ...       0.02 
freq.    1095.20  E(vib)   ...       0.02 
freq.    1115.40  E(vib)   ...       0.01 
freq.    1146.71  E(vib)   ...       0.01 
freq.    1165.18  E(vib)   ...       0.01 
freq.    1225.55  E(vib)   ...       0.01 
freq.    1365.63  E(vib)   ...       0.01 
freq.    1410.26  E(vib)   ...       0.00 
freq.    1421.19  E(vib)   ...       0.00 
freq.    1480.51  E(vib)   ...       0.00 
freq.    1483.51  E(vib)   ...       0.00 
freq.    1495.86  E(vib)   ...       0.00 
freq.    1505.40  E(vib)   ...       0.00 
freq.    1541.54  E(vib)   ...       0.00 
freq.    3051.79  E(vib)   ...       0.00 
freq.    3057.76  E(vib)   ...       0.00 
freq.    3126.92  E(vib)   ...       0.00 
freq.    3134.02  E(vib)   ...       0.00 
freq.    3147.03  E(vib)   ...       0.00 
freq.    3156.63  E(vib)   ...       0.00 
freq.    3167.35  E(vib)   ...       0.00 

------------
INNER ENERGY
------------

The inner energy is: U= E(el) + E(ZPE) + E(vib) + E(rot) + E(trans)
    E(el)   - is the total energy from the electronic structure calculation
              = E(kin-el) + E(nuc-el) + E(el-el) + E(nuc-nuc)
    E(ZPE)  - the the zero temperature vibrational energy from the frequency calculation
    E(vib)  - the the finite temperature correction to E(ZPE) due to population
              of excited vibrational states
    E(rot)  - is the rotational thermal energy
    E(trans)- is the translational thermal energy

Summary of contributions to the inner energy U:
Electronic energy                ...   -691.91345819 Eh
Zero point energy                ...      0.10754264 Eh      67.48 kcal/mol
Thermal vibrational correction   ...      0.00491442 Eh       3.08 kcal/mol
Thermal rotational correction    ...      0.00141627 Eh       0.89 kcal/mol
Thermal translational correction ...      0.00141627 Eh       0.89 kcal/mol
-----------------------------------------------------------------------
Total thermal energy                   -691.79816859 Eh


Summary of corrections to the electronic energy:
(perhaps to be used in another calculation)
Total thermal correction                  0.00774697 Eh       4.86 kcal/mol
Non-thermal (ZPE) correction              0.10754264 Eh      67.48 kcal/mol
-----------------------------------------------------------------------
Total correction                          0.11528961 Eh      72.35 kcal/mol


--------
ENTHALPY
--------

The enthalpy is H = U + kB*T
                kB is Boltzmann's constant
Total thermal energy              ...   -691.79816859 Eh 
Thermal Enthalpy correction       ...      0.00094421 Eh       0.59 kcal/mol
-----------------------------------------------------------------------
Total Enthalpy                    ...   -691.79722438 Eh


Note: Only C1 symmetry has been detected, increase convergence thresholds 
      if your molecule has a higher symmetry. Symmetry factor of 1.0 is   
      used for the rotational entropy correction. 
 

Note: Rotational entropy computed according to Herzberg 
Infrared and Raman Spectra, Chapter V,1, Van Nostrand Reinhold, 1945 
Point Group:  C1, Symmetry Number:   1  
Rotational constants in cm-1:     0.146957     0.044012     0.039430 

Vibrational entropy computed according to the QRRHO of S. Grimme
Chem.Eur.J. 2012 18 9955 using a reference frequency of 100.0 cm-1


-------
ENTROPY
-------

The entropy contributions are T*S = T*(S(el)+S(vib)+S(rot)+S(trans))
     S(el)   - electronic entropy
     S(vib)  - vibrational entropy
     S(rot)  - rotational entropy
     S(trans)- translational entropy
The entropies will be listed as multiplied by the temperature to get
units of energy

Electronic entropy                ...      0.00065446 Eh      0.41 kcal/mol
Vibrational entropy               ...      0.00859503 Eh      5.39 kcal/mol
Rotational entropy                ...      0.01341695 Eh      8.42 kcal/mol
Translational entropy             ...      0.01897446 Eh     11.91 kcal/mol
-----------------------------------------------------------------------
Final entropy term                ...      0.04164089 Eh     26.13 kcal/mol

In case the symmetry of your molecule has not been determined correctly
or in case you have a reason to use a different symmetry number we print 
out the resulting rotational entropy values for sn=1,12:

 non-linear molecules -----------------------------------
|  sn= 1 | S(rot)=       0.01341695 Eh      8.42 kcal/mol|
|  sn= 2 | S(rot)=       0.01276249 Eh      8.01 kcal/mol|
|  sn= 3 | S(rot)=       0.01237966 Eh      7.77 kcal/mol|
|  sn= 4 | S(rot)=       0.01210804 Eh      7.60 kcal/mol|
|  sn= 5 | S(rot)=       0.01189735 Eh      7.47 kcal/mol|
|  sn= 6 | S(rot)=       0.01172520 Eh      7.36 kcal/mol|
|  sn= 7 | S(rot)=       0.01157966 Eh      7.27 kcal/mol|
|  sn= 8 | S(rot)=       0.01145358 Eh      7.19 kcal/mol|
|  sn= 9 | S(rot)=       0.01134237 Eh      7.12 kcal/mol|
|  sn=10 | S(rot)=       0.01124289 Eh      7.06 kcal/mol|
|  sn=11 | S(rot)=       0.01115290 Eh      7.00 kcal/mol|
|  sn=12 | S(rot)=       0.01107075 Eh      6.95 kcal/mol|
 linear molecules ---------------------------------------
|  Dinfh | S(rot)=       0.00837856 Eh      5.26 kcal/mol|
|  Cinfv | S(rot)=       0.00903302 Eh      5.67 kcal/mol|
 --------------------------------------------------------


-------------------
GIBBS FREE ENERGY
-------------------

The Gibbs free energy is G = H - T*S

Total enthalpy                    ...   -691.79722438 Eh 
Total entropy correction          ...     -0.04164089 Eh    -26.13 kcal/mol
-----------------------------------------------------------------------
Final Gibbs free energy         ...   -691.83886527 Eh

For completeness - the Gibbs free energy minus the electronic energy
G-E(el)                           ...      0.07459293 Eh     46.81 kcal/mol



--------------------------------
SUGGESTED CITATIONS FOR THIS RUN
--------------------------------

Below you find a list of papers that are relevant to this ORCA run
We neither can nor want to force you to cite these papers, but we appreciate if you do
You receive ORCA, which is the product of decades of hard work by many enthusiastic individuals, for free
The only thing we kindly ask in return is that you cite our papers,
We deeply appreciate it, if you show your appreciation for ORCA by not just citing the generic ORCA reference.

Please note that relegating all ORCA citations to the supporting information does *not* help us.
SI sections are not indexed - citations you put there will not count into any citation statistics
But we need these citations in order to attract the funding resources that allow us to do what we are doing

Therefore, if you are a happy ORCA user, please consider citing a few of the papers listed below in the main body of your paper

In addition to the list printed below, the program has created the file opt.bibtex that contains the list in bibtex format
You can import this file easily into all common literature databanks and citation aid programs


List of essential papers. We consider these as the minimum necessary citations

  1. Neese, F.
     Software update: the ORCA program system, version 6.0
     WIRES Comput. Molec. Sci. 2025 15(1), e70019
     doi.org/10.1002/wcms.7019

List of papers to cite with high priority. The work reported in these papers was absolutely
necessary for this run to complete.
Our perspective: the developers of density functionals and basis sets usually get cited in chemistry papers
Good! But without the algorithms to do something with them, the functionals or basis sets would not do anything.
Hence, in our opinion, the algorithm design and method developments papers are equally worthy of getting cited

  1. Neese, F.
     An improvement of the resolution of the identity approximation for the formation of the Coulomb matrix
     J. Comp. Chem. 2003 24(14), 1740-1747
     doi.org/10.1002/jcc.10318
  2. Neese, F.; Schwabe, T.; Grimme, S.
     Analytic derivatives for perturbatively corrected 'double hybrid' density functionals: Theory, implementation, and applications
     J. Chem. Phys. 2007 126(12), Art. No. 124115
     doi.org/10.1063/1.2712433
  3. Neese, F.; Wennmohs, F.; Hansen, A.; Becker, U.
     Efficient, approximate and parallel Hartree-Fock and hybrid DFT calculations. A 'chain-of-spheres' algorithm for the Hartree-Fock exchange
     Chem. Phys. 2009 356(1-3), 98-109
     doi.org/10.1016/j.chemphys.2008.10.036
  4. Kossmann, S.; Neese, F.
     Efficient Structure Optimization with Second-Order Many-Body Perturbation Theory: The RIJCOSX-MP2 Method
     J. Theo. Comp. Chem. 2010 6 , 2325-2338
     doi.org/10.1021/ct100199k
  5. Caldeweyher, E.; Bannwarth, C.; Grimme, S.
     Extension of the D3 dispersion coefficient model
     J. Chem. Phys. 2017 147 , 034112
     doi.org/10.1063/1.4993215
  6. Caldeweyher, E.; Ehlert, S.; Hansen, A.; Neugebauer, H.; Spicher, S.; Bannwarth, C.; Grimme, S.
     A generally applicable atomic-charge dependent London dispersion correction
     J. Chem. Phys. 2019 150 , 154122
     doi.org/10.1063/1.5090222
  7. Caldeweyher, E.; Mewes, J.; Ehlert, S.; Grimme, S.
     Extension and evaluation of the D4 London-dispersion model for periodic systems
     Phys. Chem. Chem. Phys. 2020 22(16), 8499-8512
     doi.org/10.1039/D0CP00502A
  8. Asgeirsson, V.; Orri Birgisson, B.; Björnsson, R.; Becker, U.; Neese, F.; Riplinger, C.; Jonsson, H.
     Nudged Elastic Band Method for Molecular Reactions Using Energy-Weighted Springs Combined with Eigenvector Following
     J. Chem. Theory Comput. 2021 17(8), 4929-4945
     doi.org/10.1021/acs.jctc.1c00462
  9. Helmich-Paris, B.; de Souza, B.; Neese, F.; Izsák, R.
     An improved chain of spheres for exchange algorithm
     J. Chem. Phys. 2021 155(10), 104109
     doi.org/10.1063/5.0058766
 10. Neese, F.
     The SHARK Integral Generation and Digestion System
     J. Comp. Chem. 2022 44(3), 381
     doi.org/10.1002/jcc.26942
 11. Schmerwitz, Y.L.A.; Asgeirsson, V.; Jonsson, H.
     Improved Initialization of Optimal Path Calculations
     Using Sequential Traversal over the
     Image-Dependent Pair Potential Surface
     J. Chem. Theory Comput. 2023 20(1), 155-163
     doi.org/10.1021/acs.jctc.3c01111
 12. Wittmann, L.; Gordiy, I.; Friede, M.; Helmich-Paris, B.; Grimme, S.; Hansen, A.; Bursch, M.
     Extension of the D3 and D4 London Dispersion Corrections to the full Actinides Series
     Phys. Chem. Chem. Phys. 2024 26(32), 21379-21394
     doi.org/10.1039/D4CP01514B

List of suggested additional citations. These are papers that are important in the 'surrounding' of 
of this run, or papers that preceded the highly important papers. If you like your results we are grateful for a citation.

  1. Izsak, R.; Neese, F.
     An overlap fitted chain of spheres exchange method
     J. Chem. Phys. 2011 135 , 144105
     doi.org/10.1063/1.3646921
  2. Izsak, R.; Hansen, A.; Neese, F.
     The resolution of identity and chain of spheres approximations for the LPNO-CCSD singles Fock term
     Molec. Phys. 2012 110 , 2413-2417
     doi.org/10.1080/00268976.2012.687466
  3. Neese, F.
     The ORCA program system
     WIRES Comput. Molec. Sci. 2012 2(1), 73-78
     doi.org/10.1002/wcms.81
  4. Izsak, R.; Neese, F.; Klopper, W.
     Robust fitting techniques in the chain of spheres approximation to the Fock exchange: The role of the complementary space
     J. Chem. Phys. 2013 139 , 
     doi.org/10.1063/1.4819264
  5. Neese, F.
     Software update: the ORCA program system, version 4.0
     WIRES Comput. Molec. Sci. 2018 8(1), 1-6
     doi.org/10.1002/wcms.1327
  6. Neese, F.; Wennmohs, F.; Becker, U.; Riplinger, C.
     The ORCA quantum chemistry program package
     J. Chem. Phys. 2020 152(22), 224108
     doi.org/10.1063/5.0004608
  7. Neese, F.
     Software update: The ORCA program system—Version 5.0
     WIRES Comput. Molec. Sci. 2022 12(1), e1606
     doi.org/10.1002/wcms.1606

List of optional additional citations

  1. Neese, F.
     Approximate second-order SCF convergence for spin unrestricted wavefunctions
     Chem. Phys. Lett. 2000 325(1-3), 93-98
     doi.org/10.1016/s0009-2614(00)00662-x

Timings for individual modules:

Sum of individual times          ...    11487.708 sec (= 191.462 min)
Startup calculation              ...       15.380 sec (=   0.256 min)   0.1 %
SCF iterations                   ...       86.774 sec (=   1.446 min)   0.8 %
Property calculations            ...        1.996 sec (=   0.033 min)   0.0 %
MP2 module                       ...      132.456 sec (=   2.208 min)   1.2 %
Geometry relaxation              ...        0.184 sec (=   0.003 min)   0.0 %
Numerical frequency calculation  ...     1819.754 sec (=  30.329 min)  15.8 %
NEB Iterations                   ...     9431.164 sec (= 157.186 min)  82.1 %
                             ****ORCA TERMINATED NORMALLY****
TOTAL RUN TIME: 0 days 3 hours 9 minutes 30 seconds 108 msec
