 Entering Gaussian System, Link 0=g16
 Input=run.inp
 Output=run.out
 Initial command:
 /gpfs/fs1/soft/bebop/software/custom-built/gaussian/16-c.02/g16/l1.exe "/scratch/Gau-1817576.inp" -scrdir="/scratch/"
 Default CPUs for threads: 0-35
 Default is to use a total of  36 processors:
                               36 via shared-memory
                                1 via Linda
 Entering Link 1 = /gpfs/fs1/soft/bebop/software/custom-built/gaussian/16-c.02/g16/l1.exe PID=   1817577.
  
 Copyright (c) 1988-2019, Gaussian, Inc.  All Rights Reserved.
  
 This is part of the Gaussian(R) 16 program.  It is based on
 the Gaussian(R) 09 system (copyright 2009, Gaussian, Inc.),
 the Gaussian(R) 03 system (copyright 2003, Gaussian, Inc.),
 the Gaussian(R) 98 system (copyright 1998, Gaussian, Inc.),
 the Gaussian(R) 94 system (copyright 1995, Gaussian, Inc.),
 the Gaussian 92(TM) system (copyright 1992, Gaussian, Inc.),
 the Gaussian 90(TM) system (copyright 1990, Gaussian, Inc.),
 the Gaussian 88(TM) system (copyright 1988, Gaussian, Inc.),
 the Gaussian 86(TM) system (copyright 1986, Carnegie Mellon
 University), and the Gaussian 82(TM) system (copyright 1983,
 Carnegie Mellon University). Gaussian is a federally registered
 trademark of Gaussian, Inc.
  
 This software contains proprietary and confidential information,
 including trade secrets, belonging to Gaussian, Inc.
  
 This software is provided under written license and may be
 used, copied, transmitted, or stored only in accord with that
 written license.
  
 The following legend is applicable only to US Government
 contracts under FAR:
  
                    RESTRICTED RIGHTS LEGEND
  
 Use, reproduction and disclosure by the US Government is
 subject to restrictions as set forth in subparagraphs (a)
 and (c) of the Commercial Computer Software - Restricted
 Rights clause in FAR 52.227-19.
  
 Gaussian, Inc.
 340 Quinnipiac St., Bldg. 40, Wallingford CT 06492
  
  
 ---------------------------------------------------------------
 Warning -- This program may not be used in any manner that
 competes with the business of Gaussian, Inc. or will provide
 assistance to any competitor of Gaussian, Inc.  The licensee
 of this program is prohibited from giving any competitor of
 Gaussian, Inc. access to this program.  By using this program,
 the user acknowledges that Gaussian, Inc. is engaged in the
 business of creating and licensing software in the field of
 computational chemistry and represents and warrants to the
 licensee that it is not a competitor of Gaussian, Inc. and that
 it will not use this program in any manner prohibited above.
 ---------------------------------------------------------------
  

 Cite this work as:
 Gaussian 16, Revision C.01,
 M. J. Frisch, G. W. Trucks, H. B. Schlegel, G. E. Scuseria, 
 M. A. Robb, J. R. Cheeseman, G. Scalmani, V. Barone, 
 G. A. Petersson, H. Nakatsuji, X. Li, M. Caricato, A. V. Marenich, 
 J. Bloino, B. G. Janesko, R. Gomperts, B. Mennucci, H. P. Hratchian, 
 J. V. Ortiz, A. F. Izmaylov, J. L. Sonnenberg, D. Williams-Young, 
 F. Ding, F. Lipparini, F. Egidi, J. Goings, B. Peng, A. Petrone, 
 T. Henderson, D. Ranasinghe, V. G. Zakrzewski, J. Gao, N. Rega, 
 G. Zheng, W. Liang, M. Hada, M. Ehara, K. Toyota, R. Fukuda, 
 J. Hasegawa, M. Ishida, T. Nakajima, Y. Honda, O. Kitao, H. Nakai, 
 T. Vreven, K. Throssell, J. A. Montgomery, Jr., J. E. Peralta, 
 F. Ogliaro, M. J. Bearpark, J. J. Heyd, E. N. Brothers, K. N. Kudin, 
 V. N. Staroverov, T. A. Keith, R. Kobayashi, J. Normand, 
 K. Raghavachari, A. P. Rendell, J. C. Burant, S. S. Iyengar, 
 J. Tomasi, M. Cossi, J. M. Millam, M. Klene, C. Adamo, R. Cammi, 
 J. W. Ochterski, R. L. Martin, K. Morokuma, O. Farkas, 
 J. B. Foresman, and D. J. Fox, Gaussian, Inc., Wallingford CT, 2019.
 
 ******************************************
 Gaussian 16:  ES64L-G16RevC.01  3-Jul-2019
                 7-Oct-2024 
 ******************************************
 %mem=20GB
 %NProcShared=6
 Will use up to    6 processors via shared memory.
 ---------------------------------------------------------
 #P b2plypd3/cc-pvtz # SCF=(xqc) # POpt=() # int=ultrafine
 ---------------------------------------------------------
 1/10=7,38=1/1,3;
 2/12=2,17=6,18=5,29=3,40=1/2;
 3/5=16,6=1,11=9,25=1,30=1,71=1,74=-60,75=-5/1,2,3;
 4//1;
 5/5=2,8=3,13=1,38=5/2,8;
 8/6=4,10=1/1;
 9/15=2,16=-3/6;
 10/5=1/2;
 6/7=2,8=2,9=2,10=2/1;
 7/12=2,29=1/1,2,3,16;
 1/10=7/3(2);
 2/29=3/2;
 99//99;
 2/29=3/2;
 3/5=16,6=1,11=9,25=1,30=1,71=1,74=-60,75=-5/1,2,3;
 4/5=5,16=3,69=1/1;
 5/5=2,8=3,13=1,38=5/2,8;
 8/6=4,10=1/1;
 9/15=2,16=-3/6;
 10/5=1/2;
 7/12=2/1,2,3,16;
 1//3(-8);
 2/29=3/2;
 6/7=2,8=2,9=2,10=2/1;
 99/9=10/99;
 Leave Link    1 at Mon Oct  7 11:51:56 2024, MaxMem=  2684354560 cpu:               1.0 elap:               0.1
 (Enter /gpfs/fs1/soft/bebop/software/custom-built/gaussian/16-c.02/g16/l101.exe)
 --------
 comment:
 --------
 Symbolic Z-matrix:
 Charge =  0 Multiplicity = 2
 C
 C                    1    R1
 C                    1    R2       2    A2
 H                    1    R3       2    A3       3    D3       0
 O                    3    R4       1    A4       2    D4       0
 C                    3    R5       1    A5       5    D5       0
 H                    3    R6       1    A6       5    D6       0
 H                    2    R7       1    A7       3    D7       0
 H                    2    R8       1    A8       8    D8       0
 H                    2    R9       1    A9       8    D9       0
 H                    6    R10      3    A10      1    D10      0
 H                    6    R11      3    A11      11   D11      0
 H                    6    R12      3    A12      11   D12      0
 X                    7    R13      3    A13      6    D13      0
 Cl                   7    R14      14   A14      3    D14      0
       Variables:
  R1                    1.497                    
  R2                    1.4485                   
  R3                    1.0833                   
  R4                    1.3666                   
  R5                    1.4826                   
  R6                    1.9441                   
  R7                    1.0871                   
  R8                    1.0893                   
  R9                    1.0902                   
  R10                   1.0885                   
  R11                   1.0875                   
  R12                   1.0942                   
  R14                   1.2787                   
  A2                  123.9504                   
  A3                  116.3559                   
  A4                   63.8452                   
  A5                  136.0319                   
  A6                  105.794                    
  A7                  111.2184                   
  A8                  110.5986                   
  A9                  109.6858                   
  A10                 110.0161                   
  A11                 110.3196                   
  A12                 111.0346                   
  A14                  85.8367                   
  D3                  198.2159                   
  D4                   99.3742                   
  D5                  247.1521                   
  D6                  107.361                    
  D7                  339.5988                   
  D8                  239.1671                   
  D9                  120.2309                   
  D10                 149.5652                   
  D11                 119.8483                   
  D12                 240.415                    
  D14                 175.0512                   
       Constants:
  R13                   1.                       
  A13                  90.                       
  D13                 310.8195                   
 
 ITRead=  0  0  0  0  0  0  0  0  0  0  0  0  0  0
 MicOpt= -1 -1 -1 -1 -1 -1 -1 -1 -1 -1 -1 -1 -1 -1
 NAtoms=     14 NQM=       14 NQMF=       0 NMMI=      0 NMMIF=      0
                NMic=       0 NMicF=      0.
                    Isotopes and Nuclear Properties:
 (Nuclear quadrupole moments (NQMom) in fm**2, nuclear magnetic moments (NMagM)
  in nuclear magnetons)

  Atom         1           2           3           4           5           6           7           8           9          10
 IAtWgt=          12          12          12           1          16          12           1           1           1           1
 AtmWgt=  12.0000000  12.0000000  12.0000000   1.0078250  15.9949146  12.0000000   1.0078250   1.0078250   1.0078250   1.0078250
 NucSpn=           0           0           0           1           0           0           1           1           1           1
 AtZEff=  -0.0000000  -0.0000000  -0.0000000  -0.0000000  -0.0000000  -0.0000000  -0.0000000  -0.0000000  -0.0000000  -0.0000000
 NQMom=    0.0000000   0.0000000   0.0000000   0.0000000   0.0000000   0.0000000   0.0000000   0.0000000   0.0000000   0.0000000
 NMagM=    0.0000000   0.0000000   0.0000000   2.7928460   0.0000000   0.0000000   2.7928460   2.7928460   2.7928460   2.7928460
 AtZNuc=   6.0000000   6.0000000   6.0000000   1.0000000   8.0000000   6.0000000   1.0000000   1.0000000   1.0000000   1.0000000

  Atom        11          12          13          14
 IAtWgt=           1           1           1          35
 AtmWgt=   1.0078250   1.0078250   1.0078250  34.9688527
 NucSpn=           1           1           1           3
 AtZEff=  -0.0000000  -0.0000000  -0.0000000  -0.0000000
 NQMom=    0.0000000   0.0000000   0.0000000  -8.1650000
 NMagM=    2.7928460   2.7928460   2.7928460   0.8218740
 AtZNuc=   1.0000000   1.0000000   1.0000000  17.0000000
 Leave Link  101 at Mon Oct  7 11:51:56 2024, MaxMem=  2684354560 cpu:               0.6 elap:               0.1
 (Enter /gpfs/fs1/soft/bebop/software/custom-built/gaussian/16-c.02/g16/l103.exe)

 GradGradGradGradGradGradGradGradGradGradGradGradGradGradGradGradGradGrad
 Berny optimization.
 Initialization pass.
                       ----------------------------
                       !    Initial Parameters    !
                       ! (Angstroms and Degrees)  !
 ----------------------                            ----------------------
 !      Name          Value   Derivative information (Atomic Units)     !
 ------------------------------------------------------------------------
 !       R1          1.497    estimate D2E/DX2                          !
 !       R2          1.4485   estimate D2E/DX2                          !
 !       R3          1.0833   estimate D2E/DX2                          !
 !       R4          1.3666   estimate D2E/DX2                          !
 !       R5          1.4826   estimate D2E/DX2                          !
 !       R6          1.9441   estimate D2E/DX2                          !
 !       R7          1.0871   estimate D2E/DX2                          !
 !       R8          1.0893   estimate D2E/DX2                          !
 !       R9          1.0902   estimate D2E/DX2                          !
 !       R10         1.0885   estimate D2E/DX2                          !
 !       R11         1.0875   estimate D2E/DX2                          !
 !       R12         1.0942   estimate D2E/DX2                          !
 !       R14         1.2787   estimate D2E/DX2                          !
 !       A2        123.9504   estimate D2E/DX2                          !
 !       A3        116.3559   estimate D2E/DX2                          !
 !       A4         63.8452   estimate D2E/DX2                          !
 !       A5        136.0319   estimate D2E/DX2                          !
 !       A6        105.794    estimate D2E/DX2                          !
 !       A7        111.2184   estimate D2E/DX2                          !
 !       A8        110.5986   estimate D2E/DX2                          !
 !       A9        109.6858   estimate D2E/DX2                          !
 !       A10       110.0161   estimate D2E/DX2                          !
 !       A11       110.3196   estimate D2E/DX2                          !
 !       A12       111.0346   estimate D2E/DX2                          !
 !       A14        85.8367   estimate D2E/DX2                          !
 !       D3        198.2159   estimate D2E/DX2                          !
 !       D4         99.3742   estimate D2E/DX2                          !
 !       D5        247.1521   estimate D2E/DX2                          !
 !       D6        107.361    estimate D2E/DX2                          !
 !       D7        339.5988   estimate D2E/DX2                          !
 !       D8        239.1671   estimate D2E/DX2                          !
 !       D9        120.2309   estimate D2E/DX2                          !
 !       D10       149.5652   estimate D2E/DX2                          !
 !       D11       119.8483   estimate D2E/DX2                          !
 !       D12       240.415    estimate D2E/DX2                          !
 !       D14       175.0512   estimate D2E/DX2                          !
 !       R13         1.0      Frozen                                    !
 !       A13        90.0      Frozen                                    !
 !       D13       310.8195   Frozen                                    !
 ------------------------------------------------------------------------
 Trust Radius=3.00D-01 FncErr=1.00D-07 GrdErr=1.00D-07 EigMax=2.50D+02 EigMin=1.00D-04
 Number of steps in this run=     49 maximum allowed number of steps=    100.
 GradGradGradGradGradGradGradGradGradGradGradGradGradGradGradGradGradGrad

 Leave Link  103 at Mon Oct  7 11:51:56 2024, MaxMem=  2684354560 cpu:               0.1 elap:               0.0
 (Enter /gpfs/fs1/soft/bebop/software/custom-built/gaussian/16-c.02/g16/l202.exe)
 ---------------------------------------------------------------------------------------------------
                            Z-MATRIX (ANGSTROMS AND DEGREES)
   CD    Cent   Atom    N1       Length/X        N2       Alpha/Y        N3        Beta/Z          J
 ---------------------------------------------------------------------------------------------------
      1      1  C 
      2      2  C        1   1.497000(     1)
      3      3  C        1   1.448500(     2)      2  123.950(    15)
      4      4  H        1   1.083300(     3)      2  116.356(    16)      3  198.216(    28)      0
      5      5  O        3   1.366600(     4)      1   63.845(    17)      2   99.374(    29)      0
      6      6  C        3   1.482600(     5)      1  136.032(    18)      5  247.152(    30)      0
      7      7  H        3   1.944100(     6)      1  105.794(    19)      5  107.361(    31)      0
      8      8  H        2   1.087100(     7)      1  111.218(    20)      3  339.599(    32)      0
      9      9  H        2   1.089300(     8)      1  110.599(    21)      8  239.167(    33)      0
     10     10  H        2   1.090200(     9)      1  109.686(    22)      8  120.231(    34)      0
     11     11  H        6   1.088500(    10)      3  110.016(    23)      1  149.565(    35)      0
     12     12  H        6   1.087500(    11)      3  110.320(    24)     11  119.848(    36)      0
     13     13  H        6   1.094200(    12)      3  111.035(    25)     11  240.415(    37)      0
     14         X        7   1.000000(    13)      3   90.000(    26)      6  310.820(    38)      0
     15     14  Cl       7   1.278700(    14)     14   85.837(    27)      3  175.051(    39)      0
 ---------------------------------------------------------------------------------------------------
                         Z-Matrix orientation:                         
 ---------------------------------------------------------------------
 Center     Atomic      Atomic             Coordinates (Angstroms)
 Number     Number       Type             X           Y           Z
 ---------------------------------------------------------------------
      1          6           0        0.000000    0.000000    0.000000
      2          6           0        0.000000    0.000000    1.497000
      3          6           0        1.201562    0.000000   -0.808951
      4          1           0       -0.922049    0.303438   -0.480926
      5          8           0        0.590278   -1.210287   -0.638269
      6          6           0        2.645737    0.239827   -0.574549
      7          1           0        0.707445    0.841569   -2.490360
      8          1           0        0.949837   -0.353264    1.890448
      9          1           0       -0.795039   -0.638449    1.880236
     10          1           0       -0.175241    1.011413    1.864247
     11          1           0        3.239222   -0.351605   -1.269398
     12          1           0        2.882825    1.290869   -0.722051
     13          1           0        2.931037   -0.044584    0.442794
     14         -1           0        1.157081    1.686184   -2.199752
     15         17           0        0.332048    1.504644   -3.517240
 ---------------------------------------------------------------------
                    Distance matrix (angstroms):
                    1          2          3          4          5
     1  C    0.000000
     2  C    1.497000   0.000000
     3  C    1.448500   2.600223   0.000000
     4  H    1.083300   2.203280   2.170114   0.000000
     5  O    1.490172   2.524400   1.366600   2.145520   0.000000
     6  C    2.718004   3.368791   1.482600   3.569581   2.516307
     7  H    2.722243   4.136152   1.944100   2.642472   2.766602
     8  H    2.144942   1.087100   2.734029   3.091703   2.694101
     9  H    2.138923   1.089300   3.409657   2.545264   2.930695
    10  H    2.128164   1.090200   3.172464   2.561013   3.432864
    11  H    3.496793   4.274242   2.118419   4.285668   2.855270
    12  H    3.240121   3.860209   2.121448   3.938303   3.393903
    13  H    2.964630   3.115175   2.135401   3.977518   2.829613
    14  X    3.003492   4.224693   2.186212   3.031358   3.339019
    15  Cl   3.839946   5.245647   3.217893   3.497836   3.965603
                    6          7          8          9         10
     6  C    0.000000
     7  H    2.790949   0.000000
     8  H    3.050253   4.547290   0.000000
     9  H    4.316976   4.852836   1.768057   0.000000
    10  H    3.808016   4.446412   1.768850   1.762512   0.000000
    11  H    1.088500   3.053573   3.902040   5.126182   4.830746
    12  H    1.087500   2.839202   3.642082   4.901107   4.014823
    13  H    1.094200   3.785897   2.473082   4.037643   3.575559
    14  X    2.636158   1.000000   4.575154   5.085371   4.329722
    15  Cl   3.951246   1.278700   5.751223   5.915735   5.427800
                   11         12         13         14         15
    11  H    0.000000
    12  H    1.767577   0.000000
    13  H    1.766591   1.772745   0.000000
    14  X    3.058342   2.306094   3.622918   0.000000
    15  Cl   4.117051   3.790151   4.983645   1.565058   0.000000
 Stoichiometry    C4H8ClO(2)
 Framework group  C1[X(C4H8ClO)]
 Deg. of freedom    36
 Full point group                 C1      NOp   1
 Largest Abelian subgroup         C1      NOp   1
 Largest concise Abelian subgroup C1      NOp   1
                         Standard orientation:                         
 ---------------------------------------------------------------------
 Center     Atomic      Atomic             Coordinates (Angstroms)
 Number     Number       Type             X           Y           Z
 ---------------------------------------------------------------------
      1          6           0       -1.131801   -0.780976   -0.020138
      2          6           0       -2.516712   -0.881595   -0.579518
      3          6           0       -0.417770    0.467440    0.152402
      4          1           0       -0.545648   -1.691999   -0.020417
      5          8           0       -1.016397   -0.043522    1.269612
      6          6           0       -0.585111    1.865428   -0.312065
      7          1           0        1.470474    0.014355    0.058741
      8          1           0       -3.041594    0.067367   -0.503649
      9          1           0       -3.090234   -1.640463   -0.048701
     10          1           0       -2.468544   -1.170651   -1.629595
     11          1           0       -0.183163    2.554665    0.428357
     12          1           0       -0.057520    2.017185   -1.250827
     13          1           0       -1.642110    2.105935   -0.461002
     14         17           0        2.682228   -0.348824   -0.127876
 ---------------------------------------------------------------------
 Rotational constants (GHZ):           4.0823283           1.1715473           1.0481373
 Leave Link  202 at Mon Oct  7 11:51:56 2024, MaxMem=  2684354560 cpu:               0.1 elap:               0.0
 (Enter /gpfs/fs1/soft/bebop/software/custom-built/gaussian/16-c.02/g16/l301.exe)
 Standard basis: CC-pVTZ (5D, 7F)
 Ernie: Thresh=  0.10000D-02 Tol=  0.10000D-05 Strict=F.
 Ernie:  28 primitive shells out of 254 were deleted.
 There are   334 symmetry adapted cartesian basis functions of A   symmetry.
 There are   296 symmetry adapted basis functions of A   symmetry.
   296 basis functions,   490 primitive gaussians,   334 cartesian basis functions
    29 alpha electrons       28 beta electrons
       nuclear repulsion energy       274.2703239043 Hartrees.
 IExCor=  419 DFT=T Ex+Corr=B2PLYPD3 ExCW=0 ScaHFX=  0.530000
 ScaDFX=  0.470000  0.470000  0.730000  0.730000 ScalE2=  0.270000  0.270000
 IRadAn=      5 IRanWt=     -1 IRanGd=            0 ICorTp=0 IEmpDi=141
 NAtoms=   14 NActive=   14 NUniq=   14 SFac= 1.00D+00 NAtFMM=   60 NAOKFM=F Big=F
 Integral buffers will be    131072 words long.
 Regular integral format.
 Two-electron integral symmetry is turned on.
 R6Disp:  Grimme-D3(BJ) Dispersion energy=       -0.0079085891 Hartrees.
 Nuclear repulsion after empirical dispersion term =      274.2624153151 Hartrees.
 Leave Link  301 at Mon Oct  7 11:51:56 2024, MaxMem=  2684354560 cpu:               0.3 elap:               0.1
 (Enter /gpfs/fs1/soft/bebop/software/custom-built/gaussian/16-c.02/g16/l302.exe)
 NPDir=0 NMtPBC=     1 NCelOv=     1 NCel=       1 NClECP=     1 NCelD=      1
         NCelK=      1 NCelE2=     1 NClLst=     1 CellRange=     0.0.
 One-electron integrals computed using PRISM.
 One-electron integral symmetry used in STVInt
 NBasis=   296 RedAO= T EigKep=  3.12D-04  NBF=   296
 NBsUse=   296 1.00D-06 EigRej= -1.00D+00 NBFU=   296
 Precomputing XC quadrature grid using
 IXCGrd= 4 IRadAn=           5 IRanWt=          -1 IRanGd=           0 AccXCQ= 0.00D+00.
 Generated NRdTot=       0 NPtTot=           0 NUsed=           0 NTot=          32
 NSgBfM=   334   334   334   334   334 MxSgAt=    14 MxSgA2=    14.
 Leave Link  302 at Mon Oct  7 11:51:56 2024, MaxMem=  2684354560 cpu:               1.1 elap:               0.2
 (Enter /gpfs/fs1/soft/bebop/software/custom-built/gaussian/16-c.02/g16/l303.exe)
 DipDrv:  MaxL=1.
 Leave Link  303 at Mon Oct  7 11:51:57 2024, MaxMem=  2684354560 cpu:               0.2 elap:               0.1
 (Enter /gpfs/fs1/soft/bebop/software/custom-built/gaussian/16-c.02/g16/l401.exe)
 ExpMin= 1.03D-01 ExpMax= 4.56D+05 ExpMxC= 1.44D+03 IAcc=3 IRadAn=         5 AccDes= 0.00D+00
 Harris functional with IExCor=  419 and IRadAn=       5 diagonalized for initial guess.
 HarFok:  IExCor=  419 AccDes= 0.00D+00 IRadAn=         5 IDoV= 1 UseB2=F ITyADJ=14
 ICtDFT=  3500011 ScaDFX=  1.000000  1.000000  1.000000  1.000000
 FoFCou: FMM=F IPFlag=           0 FMFlag=      100000 FMFlg1=           0
         NFxFlg=           0 DoJE=T BraDBF=F KetDBF=T FulRan=T
         wScrn=  0.000000 ICntrl=       500 IOpCl=  0 I1Cent=   200000004 NGrid=           0
         NMat0=    1 NMatS0=      1 NMatT0=    0 NMatD0=    1 NMtDS0=    0 NMtDT0=    0
 Petite list used in FoFCou.
 Harris En= -692.643292976800    
 JPrj=0 DoOrth=F DoCkMO=F.
 Initial guess <Sx>= 0.0000 <Sy>= 0.0000 <Sz>= 0.5000 <S**2>= 0.7500 S= 0.5000
 Leave Link  401 at Mon Oct  7 11:51:58 2024, MaxMem=  2684354560 cpu:               6.0 elap:               1.0
 (Enter /gpfs/fs1/soft/bebop/software/custom-built/gaussian/16-c.02/g16/l502.exe)
 Keep R1 and R2 ints in memory in canonical form, NReq=1950973320.
 FoFCou: FMM=F IPFlag=           0 FMFlag=           0 FMFlg1=           0
         NFxFlg=           0 DoJE=F BraDBF=F KetDBF=F FulRan=T
         wScrn=  0.000000 ICntrl=       600 IOpCl=  0 I1Cent=           0 NGrid=           0
         NMat0=    1 NMatS0=  43956 NMatT0=    0 NMatD0=    1 NMtDS0=    0 NMtDT0=    0
 Symmetry not used in FoFCou.
 Two-electron integral symmetry not used.
 UHF open shell SCF:
 Using DIIS extrapolation, IDIIS=  1040.
 NGot=  2684354560 LenX=   751952220 LenY=   751840223
 Requested convergence on RMS density matrix=1.00D-08 within  32 cycles.
 Requested convergence on MAX density matrix=1.00D-06.
 Requested convergence on             energy=1.00D-06.
 No special actions if energy rises.
 Integral accuracy reduced to 1.0D-05 until final iterations.

 Cycle   1  Pass 0  IDiag  1:
 E= -691.801314670349    
 DIIS: error= 2.71D-02 at cycle   1 NSaved=   1.
 NSaved= 1 IEnMin= 1 EnMin= -691.801314670349     IErMin= 1 ErrMin= 2.71D-02
 ErrMax= 2.71D-02  0.00D+00 EMaxC= 1.00D-01 BMatC= 1.06D+00 BMatP= 1.06D+00
 IDIUse=3 WtCom= 7.29D-01 WtEn= 2.71D-01
 Coeff-Com:  0.100D+01
 Coeff-En:   0.100D+01
 Coeff:      0.100D+01
 Gap=     0.426 Goal=   None    Shift=    0.000
 Gap=     0.420 Goal=   None    Shift=    0.000
 GapD=    0.420 DampG=2.000 DampE=0.500 DampFc=1.0000 IDamp=-1.
 RMSDP=1.48D-03 MaxDP=4.68D-02              OVMax= 1.36D-01

 Cycle   2  Pass 0  IDiag  1:
 E= -691.905363021012     Delta-E=       -0.104048350663 Rises=F Damp=F
 DIIS: error= 2.21D-02 at cycle   2 NSaved=   2.
 NSaved= 2 IEnMin= 2 EnMin= -691.905363021012     IErMin= 2 ErrMin= 2.21D-02
 ErrMax= 2.21D-02  0.00D+00 EMaxC= 1.00D-01 BMatC= 3.62D-01 BMatP= 1.06D+00
 IDIUse=3 WtCom= 7.79D-01 WtEn= 2.21D-01
 Coeff-Com:  0.351D+00 0.649D+00
 Coeff-En:   0.235D+00 0.765D+00
 Coeff:      0.325D+00 0.675D+00
 Gap=     0.347 Goal=   None    Shift=    0.000
 Gap=     0.364 Goal=   None    Shift=    0.000
 RMSDP=8.01D-04 MaxDP=3.14D-02 DE=-1.04D-01 OVMax= 6.79D-02

 Cycle   3  Pass 0  IDiag  1:
 E= -691.988548011105     Delta-E=       -0.083184990093 Rises=F Damp=F
 DIIS: error= 3.77D-03 at cycle   3 NSaved=   3.
 NSaved= 3 IEnMin= 3 EnMin= -691.988548011105     IErMin= 3 ErrMin= 3.77D-03
 ErrMax= 3.77D-03  0.00D+00 EMaxC= 1.00D-01 BMatC= 1.79D-02 BMatP= 3.62D-01
 IDIUse=3 WtCom= 9.62D-01 WtEn= 3.77D-02
 Coeff-Com:  0.870D-03 0.173D+00 0.826D+00
 Coeff-En:   0.000D+00 0.000D+00 0.100D+01
 Coeff:      0.837D-03 0.167D+00 0.832D+00
 Gap=     0.343 Goal=   None    Shift=    0.000
 Gap=     0.351 Goal=   None    Shift=    0.000
 RMSDP=1.47D-04 MaxDP=4.78D-03 DE=-8.32D-02 OVMax= 1.30D-02

 Cycle   4  Pass 0  IDiag  1:
 E= -691.992470451085     Delta-E=       -0.003922439980 Rises=F Damp=F
 DIIS: error= 1.11D-03 at cycle   4 NSaved=   4.
 NSaved= 4 IEnMin= 4 EnMin= -691.992470451085     IErMin= 4 ErrMin= 1.11D-03
 ErrMax= 1.11D-03  0.00D+00 EMaxC= 1.00D-01 BMatC= 1.17D-03 BMatP= 1.79D-02
 IDIUse=3 WtCom= 9.89D-01 WtEn= 1.11D-02
 Coeff-Com: -0.620D-02 0.521D-01 0.328D+00 0.626D+00
 Coeff-En:   0.000D+00 0.000D+00 0.000D+00 0.100D+01
 Coeff:     -0.613D-02 0.516D-01 0.324D+00 0.630D+00
 Gap=     0.343 Goal=   None    Shift=    0.000
 Gap=     0.351 Goal=   None    Shift=    0.000
 RMSDP=4.44D-05 MaxDP=2.40D-03 DE=-3.92D-03 OVMax= 1.04D-02

 Cycle   5  Pass 0  IDiag  1:
 E= -691.992702331852     Delta-E=       -0.000231880767 Rises=F Damp=F
 DIIS: error= 3.90D-04 at cycle   5 NSaved=   5.
 NSaved= 5 IEnMin= 5 EnMin= -691.992702331852     IErMin= 5 ErrMin= 3.90D-04
 ErrMax= 3.90D-04  0.00D+00 EMaxC= 1.00D-01 BMatC= 3.44D-04 BMatP= 1.17D-03
 IDIUse=3 WtCom= 9.96D-01 WtEn= 3.90D-03
 Coeff-Com: -0.389D-02-0.273D-02 0.242D-01 0.346D+00 0.637D+00
 Coeff-En:   0.000D+00 0.000D+00 0.000D+00 0.133D-01 0.987D+00
 Coeff:     -0.388D-02-0.272D-02 0.241D-01 0.344D+00 0.638D+00
 Gap=     0.343 Goal=   None    Shift=    0.000
 Gap=     0.351 Goal=   None    Shift=    0.000
 RMSDP=2.20D-05 MaxDP=1.25D-03 DE=-2.32D-04 OVMax= 2.63D-03

 Cycle   6  Pass 0  IDiag  1:
 E= -691.992784507663     Delta-E=       -0.000082175811 Rises=F Damp=F
 DIIS: error= 1.50D-04 at cycle   6 NSaved=   6.
 NSaved= 6 IEnMin= 6 EnMin= -691.992784507663     IErMin= 6 ErrMin= 1.50D-04
 ErrMax= 1.50D-04  0.00D+00 EMaxC= 1.00D-01 BMatC= 2.01D-05 BMatP= 3.44D-04
 IDIUse=3 WtCom= 9.99D-01 WtEn= 1.50D-03
 Coeff-Com:  0.701D-03-0.100D-01-0.591D-01-0.479D-01 0.219D-02 0.111D+01
 Coeff-En:   0.000D+00 0.000D+00 0.000D+00 0.000D+00 0.000D+00 0.100D+01
 Coeff:      0.700D-03-0.100D-01-0.590D-01-0.479D-01 0.219D-02 0.111D+01
 Gap=     0.344 Goal=   None    Shift=    0.000
 Gap=     0.352 Goal=   None    Shift=    0.000
 RMSDP=1.63D-05 MaxDP=9.68D-04 DE=-8.22D-05 OVMax= 3.99D-03

 Cycle   7  Pass 0  IDiag  1:
 E= -691.992804560364     Delta-E=       -0.000020052701 Rises=F Damp=F
 DIIS: error= 6.86D-05 at cycle   7 NSaved=   7.
 NSaved= 7 IEnMin= 7 EnMin= -691.992804560364     IErMin= 7 ErrMin= 6.86D-05
 ErrMax= 6.86D-05  0.00D+00 EMaxC= 1.00D-01 BMatC= 4.68D-06 BMatP= 2.01D-05
 IDIUse=1 WtCom= 1.00D+00 WtEn= 0.00D+00
 Coeff-Com:  0.747D-03 0.367D-04-0.748D-02-0.463D-01-0.124D+00 0.657D-01
 Coeff-Com:  0.111D+01
 Coeff:      0.747D-03 0.367D-04-0.748D-02-0.463D-01-0.124D+00 0.657D-01
 Coeff:      0.111D+01
 Gap=     0.344 Goal=   None    Shift=    0.000
 Gap=     0.352 Goal=   None    Shift=    0.000
 RMSDP=7.73D-06 MaxDP=3.67D-04 DE=-2.01D-05 OVMax= 2.22D-03

 Initial convergence to 1.0D-05 achieved.  Increase integral accuracy.
 Cycle   8  Pass 1  IDiag  1:
 E= -691.992806855631     Delta-E=       -0.000002295267 Rises=F Damp=F
 DIIS: error= 3.08D-05 at cycle   1 NSaved=   1.
 NSaved= 1 IEnMin= 1 EnMin= -691.992806855631     IErMin= 1 ErrMin= 3.08D-05
 ErrMax= 3.08D-05  0.00D+00 EMaxC= 1.00D-01 BMatC= 1.11D-06 BMatP= 1.11D-06
 IDIUse=1 WtCom= 1.00D+00 WtEn= 0.00D+00
 Coeff-Com:  0.100D+01
 Coeff:      0.100D+01
 Gap=     0.344 Goal=   None    Shift=    0.000
 Gap=     0.352 Goal=   None    Shift=    0.000
 RMSDP=7.73D-06 MaxDP=3.67D-04 DE=-2.30D-06 OVMax= 4.80D-04

 Cycle   9  Pass 1  IDiag  1:
 E= -691.992807384902     Delta-E=       -0.000000529271 Rises=F Damp=F
 DIIS: error= 2.69D-05 at cycle   2 NSaved=   2.
 NSaved= 2 IEnMin= 2 EnMin= -691.992807384902     IErMin= 2 ErrMin= 2.69D-05
 ErrMax= 2.69D-05  0.00D+00 EMaxC= 1.00D-01 BMatC= 6.38D-07 BMatP= 1.11D-06
 IDIUse=1 WtCom= 1.00D+00 WtEn= 0.00D+00
 Coeff-Com:  0.384D+00 0.616D+00
 Coeff:      0.384D+00 0.616D+00
 Gap=     0.344 Goal=   None    Shift=    0.000
 Gap=     0.352 Goal=   None    Shift=    0.000
 RMSDP=1.12D-06 MaxDP=5.44D-05 DE=-5.29D-07 OVMax= 2.48D-04

 Cycle  10  Pass 1  IDiag  1:
 E= -691.992807616910     Delta-E=       -0.000000232008 Rises=F Damp=F
 DIIS: error= 1.35D-05 at cycle   3 NSaved=   3.
 NSaved= 3 IEnMin= 3 EnMin= -691.992807616910     IErMin= 3 ErrMin= 1.35D-05
 ErrMax= 1.35D-05  0.00D+00 EMaxC= 1.00D-01 BMatC= 1.49D-07 BMatP= 6.38D-07
 IDIUse=1 WtCom= 1.00D+00 WtEn= 0.00D+00
 Coeff-Com: -0.621D+00-0.194D+00 0.182D+01
 Coeff:     -0.621D+00-0.194D+00 0.182D+01
 Gap=     0.344 Goal=   None    Shift=    0.000
 Gap=     0.352 Goal=   None    Shift=    0.000
 RMSDP=1.91D-06 MaxDP=1.10D-04 DE=-2.32D-07 OVMax= 5.14D-04

 Cycle  11  Pass 1  IDiag  1:
 E= -691.992807789825     Delta-E=       -0.000000172916 Rises=F Damp=F
 DIIS: error= 4.23D-06 at cycle   4 NSaved=   4.
 NSaved= 4 IEnMin= 4 EnMin= -691.992807789825     IErMin= 4 ErrMin= 4.23D-06
 ErrMax= 4.23D-06  0.00D+00 EMaxC= 1.00D-01 BMatC= 1.35D-08 BMatP= 1.49D-07
 IDIUse=1 WtCom= 1.00D+00 WtEn= 0.00D+00
 Coeff-Com: -0.268D+00-0.108D+00 0.717D+00 0.659D+00
 Coeff:     -0.268D+00-0.108D+00 0.717D+00 0.659D+00
 Gap=     0.344 Goal=   None    Shift=    0.000
 Gap=     0.352 Goal=   None    Shift=    0.000
 RMSDP=2.09D-07 MaxDP=1.57D-05 DE=-1.73D-07 OVMax= 6.41D-05

 Cycle  12  Pass 1  IDiag  1:
 E= -691.992807794474     Delta-E=       -0.000000004648 Rises=F Damp=F
 DIIS: error= 1.32D-06 at cycle   5 NSaved=   5.
 NSaved= 5 IEnMin= 5 EnMin= -691.992807794474     IErMin= 5 ErrMin= 1.32D-06
 ErrMax= 1.32D-06  0.00D+00 EMaxC= 1.00D-01 BMatC= 3.35D-09 BMatP= 1.35D-08
 IDIUse=1 WtCom= 1.00D+00 WtEn= 0.00D+00
 Coeff-Com:  0.817D-02-0.984D-02-0.667D-01 0.299D+00 0.770D+00
 Coeff:      0.817D-02-0.984D-02-0.667D-01 0.299D+00 0.770D+00
 Gap=     0.344 Goal=   None    Shift=    0.000
 Gap=     0.352 Goal=   None    Shift=    0.000
 RMSDP=1.12D-07 MaxDP=5.04D-06 DE=-4.65D-09 OVMax= 1.50D-05

 Cycle  13  Pass 1  IDiag  1:
 E= -691.992807795517     Delta-E=       -0.000000001044 Rises=F Damp=F
 DIIS: error= 3.73D-07 at cycle   6 NSaved=   6.
 NSaved= 6 IEnMin= 6 EnMin= -691.992807795517     IErMin= 6 ErrMin= 3.73D-07
 ErrMax= 3.73D-07  0.00D+00 EMaxC= 1.00D-01 BMatC= 3.92D-10 BMatP= 3.35D-09
 IDIUse=1 WtCom= 1.00D+00 WtEn= 0.00D+00
 Coeff-Com:  0.579D-01 0.181D-01-0.170D+00-0.171D-01 0.289D+00 0.822D+00
 Coeff:      0.579D-01 0.181D-01-0.170D+00-0.171D-01 0.289D+00 0.822D+00
 Gap=     0.344 Goal=   None    Shift=    0.000
 Gap=     0.352 Goal=   None    Shift=    0.000
 RMSDP=4.36D-08 MaxDP=2.16D-06 DE=-1.04D-09 OVMax= 5.61D-06

 Cycle  14  Pass 1  IDiag  1:
 E= -691.992807795667     Delta-E=       -0.000000000150 Rises=F Damp=F
 DIIS: error= 1.09D-07 at cycle   7 NSaved=   7.
 NSaved= 7 IEnMin= 7 EnMin= -691.992807795667     IErMin= 7 ErrMin= 1.09D-07
 ErrMax= 1.09D-07  0.00D+00 EMaxC= 1.00D-01 BMatC= 2.60D-11 BMatP= 3.92D-10
 IDIUse=1 WtCom= 1.00D+00 WtEn= 0.00D+00
 Coeff-Com:  0.674D-02 0.284D-02-0.155D-01-0.307D-01-0.336D-01 0.964D-01
 Coeff-Com:  0.974D+00
 Coeff:      0.674D-02 0.284D-02-0.155D-01-0.307D-01-0.336D-01 0.964D-01
 Coeff:      0.974D+00
 Gap=     0.344 Goal=   None    Shift=    0.000
 Gap=     0.352 Goal=   None    Shift=    0.000
 RMSDP=1.24D-08 MaxDP=5.23D-07 DE=-1.50D-10 OVMax= 1.67D-06

 Cycle  15  Pass 1  IDiag  1:
 E= -691.992807795683     Delta-E=       -0.000000000015 Rises=F Damp=F
 DIIS: error= 5.45D-08 at cycle   8 NSaved=   8.
 NSaved= 8 IEnMin= 8 EnMin= -691.992807795683     IErMin= 8 ErrMin= 5.45D-08
 ErrMax= 5.45D-08  0.00D+00 EMaxC= 1.00D-01 BMatC= 5.77D-12 BMatP= 2.60D-11
 IDIUse=1 WtCom= 1.00D+00 WtEn= 0.00D+00
 Coeff-Com: -0.954D-02-0.320D-02 0.287D-01-0.146D-02-0.450D-01-0.140D+00
 Coeff-Com:  0.399D-01 0.113D+01
 Coeff:     -0.954D-02-0.320D-02 0.287D-01-0.146D-02-0.450D-01-0.140D+00
 Coeff:      0.399D-01 0.113D+01
 Gap=     0.344 Goal=   None    Shift=    0.000
 Gap=     0.352 Goal=   None    Shift=    0.000
 RMSDP=7.41D-09 MaxDP=3.52D-07 DE=-1.55D-11 OVMax= 1.25D-06

 SCF Done:  E(UB2PLYPD3) =  -691.992807796     A.U. after   15 cycles
            NFock= 15  Conv=0.74D-08     -V/T= 2.0026
 <Sx>= 0.0000 <Sy>= 0.0000 <Sz>= 0.5000 <S**2>= 0.7560 S= 0.5030
 <L.S>=  0.00000000000    
 KE= 6.902235773562D+02 PE=-2.183780145548D+03 EE= 5.273013450806D+02
 Annihilation of the first spin contaminant:
 S**2 before annihilation     0.7560,   after     0.7500
 Leave Link  502 at Mon Oct  7 11:53:08 2024, MaxMem=  2684354560 cpu:             195.2 elap:              70.0
 (Enter /gpfs/fs1/soft/bebop/software/custom-built/gaussian/16-c.02/g16/l508.exe)
 QCSCF skips out because SCF is already converged.
 Leave Link  508 at Mon Oct  7 11:53:08 2024, MaxMem=  2684354560 cpu:               0.0 elap:               0.0
 (Enter /gpfs/fs1/soft/bebop/software/custom-built/gaussian/16-c.02/g16/l801.exe)
 DoSCS=T DFT=T ScalE2(SS,OS)=  0.270000  0.270000
 ExpMin= 1.03D-01 ExpMax= 4.56D+05 ExpMxC= 1.44D+03 IAcc=3 IRadAn=         5 AccDes= 0.00D+00
 HarFok:  IExCor=  205 AccDes= 0.00D+00 IRadAn=         5 IDoV=-2 UseB2=F ITyADJ=14
 ICtDFT= 12500011 ScaDFX=  1.000000  1.000000  1.000000  1.000000
 Largest valence mixing into a core orbital is  1.83D-04
 Largest core mixing into a valence orbital is  6.45D-05
 Largest valence mixing into a core orbital is  1.84D-04
 Largest core mixing into a valence orbital is  6.56D-05
 Range of M.O.s used for correlation:    11   296
 NBasis=   296 NAE=    29 NBE=    28 NFC=    10 NFV=     0
 NROrb=    286 NOA=    19 NOB=    18 NVA=   267 NVB=   268

 **** Warning!!: The largest alpha MO coefficient is  0.10115474D+02


 **** Warning!!: The largest beta MO coefficient is  0.10743998D+02

 Leave Link  801 at Mon Oct  7 11:53:08 2024, MaxMem=  2684354560 cpu:               0.6 elap:               0.1
 (Enter /gpfs/fs1/soft/bebop/software/custom-built/gaussian/16-c.02/g16/l906.exe)
 DoSCS=T DFT=T ScalE2(SS,OS)=  0.270000  0.270000
 Frozen-core derivative calculation, NFC=  10 NFV=   0.
 FulOut=F Deriv=T AODrv=T NAtomX=    14
   MMem=          23  MDisk=          19 MDiskD=          19
  W3Min=     5734112 MinDsk=     4243203 NBas6D=         334
 NBas2D=       56620    NTT=       55945    LW2=     3500000
    MDV=  2682945961 MDiskM=       40133 NBas2p=       54057
 Fully direct method using O(ONN) memory.
 IMap=   1   2   3   4   5   6   7   8   9  10  11  12  13  14  15  16  17  18  19  20
 IMap=  21  22  23  24  25  26  27  28  29
 JobTyp=2 Pass  1:  I=  11 to  29 NPSUse=  6 ParTrn=T ParDer=T DoDerP=T.
 IMap=   1   2   3   4   5   6   7   8   9  10  11  12  13  14  15  16  17  18  19  20
 IMap=  21  22  23  24  25  26  27  28
 JobTyp=3 Pass  1:  I=  11 to  28 NPSUse=  6 ParTrn=T ParDer=T DoDerP=T.
 Spin components of T(2) and E(2):
     alpha-alpha T2 =       0.6769528446D-01 E2=     -0.4543387739D-01
     alpha-beta  T2 =       0.3817488501D+00 E2=     -0.2732083978D+00
     beta-beta   T2 =       0.6758134551D-01 E2=     -0.4305200838D-01
 The integrals were generated   2 times.
 (S**2,0)=  0.75601D+00           (S**2,1)=  0.74693D+00
 Scaling Projection term by:   0.270000
 E(PUHF)=      -0.69199511545D+03        E(PMP2)=      -0.69235465558D+03
 E2(B2PLYPD3) =    -0.3616942836D+00 E(B2PLYPD3) =    -0.69235450207928D+03
 Leave Link  906 at Mon Oct  7 11:55:41 2024, MaxMem=  2684354560 cpu:             918.5 elap:             153.6
 (Enter /gpfs/fs1/soft/bebop/software/custom-built/gaussian/16-c.02/g16/l1002.exe)
 Minotr:  UHF open shell wavefunction.
          Computing MP2/KS-MP2 derivatives.
          Using Z-Vector for PSCF gradient.
          Skipping F1 and S1 gradient terms here.
          IDoAtm=11111111111111
          Frozen-core window.
          Direct CPHF calculation.
          Differentiating once with respect to electric field.
                with respect to dipole field.
          Differentiating once with respect to nuclear coordinates.
          Requested convergence is 1.0D-10 RMS, and 1.0D-09 maximum.
          NewPWx=F KeepS1=T KeepF1=T KeepIn=T MapXYZ=F SortEE=F KeepMc=T.
 Keep R1 and R2 ints in memory in canonical form, NReq=1950975864.
 FoFCou: FMM=F IPFlag=           0 FMFlag=           0 FMFlg1=           0
         NFxFlg=           0 DoJE=F BraDBF=F KetDBF=F FulRan=T
         wScrn=  0.000000 ICntrl=       600 IOpCl=  0 I1Cent=           0 NGrid=           0
         NMat0=    1 NMatS0=  43956 NMatT0=    0 NMatD0=    1 NMtDS0=    0 NMtDT0=    0
 Symmetry not used in FoFCou.
 Two-electron integral symmetry not used.
          MDV=    2684354560 using IRadAn=       5.
          Solving linear equations separately, MaxMat=       0.
          There are     1 degrees of freedom in the 1st order CPHF.  IDoFFX=0 NUNeed=     1.
 LinEq1:  Iter=  0 NonCon=     1 RMS=7.08D-04 Max=4.04D-02 NDo=     1
 AX will form     1 AO Fock derivatives at one time.
 LinEq1:  Iter=  1 NonCon=     1 RMS=3.09D-04 Max=5.00D-03 NDo=     1
 LinEq1:  Iter=  2 NonCon=     1 RMS=1.79D-04 Max=1.14D-02 NDo=     1
 LinEq1:  Iter=  3 NonCon=     1 RMS=1.01D-04 Max=2.55D-03 NDo=     1
 LinEq1:  Iter=  4 NonCon=     1 RMS=3.73D-05 Max=1.35D-03 NDo=     1
 LinEq1:  Iter=  5 NonCon=     1 RMS=1.25D-05 Max=3.42D-04 NDo=     1
 LinEq1:  Iter=  6 NonCon=     1 RMS=4.47D-06 Max=8.27D-05 NDo=     1
 LinEq1:  Iter=  7 NonCon=     1 RMS=1.66D-06 Max=4.54D-05 NDo=     1
 LinEq1:  Iter=  8 NonCon=     1 RMS=8.70D-07 Max=1.88D-05 NDo=     1
 LinEq1:  Iter=  9 NonCon=     1 RMS=3.07D-07 Max=6.94D-06 NDo=     1
 LinEq1:  Iter= 10 NonCon=     1 RMS=1.31D-07 Max=2.40D-06 NDo=     1
 LinEq1:  Iter= 11 NonCon=     1 RMS=5.26D-08 Max=1.51D-06 NDo=     1
 LinEq1:  Iter= 12 NonCon=     1 RMS=2.15D-08 Max=5.17D-07 NDo=     1
 LinEq1:  Iter= 13 NonCon=     1 RMS=8.60D-09 Max=1.74D-07 NDo=     1
 LinEq1:  Iter= 14 NonCon=     1 RMS=2.83D-09 Max=6.58D-08 NDo=     1
 LinEq1:  Iter= 15 NonCon=     1 RMS=1.16D-09 Max=1.82D-08 NDo=     1
 LinEq1:  Iter= 16 NonCon=     1 RMS=3.51D-10 Max=6.36D-09 NDo=     1
 LinEq1:  Iter= 17 NonCon=     1 RMS=1.05D-10 Max=2.56D-09 NDo=     1
 LinEq1:  Iter= 18 NonCon=     0 RMS=4.15D-11 Max=6.18D-10 NDo=     1
 Linear equations converged to 1.000D-10 1.000D-09 after    18 iterations.
 End of Minotr F.D. properties file   721 does not exist.
 End of Minotr F.D. properties file   722 does not exist.
 End of Minotr F.D. properties file   788 does not exist.
 Leave Link 1002 at Mon Oct  7 11:57:30 2024, MaxMem=  2684354560 cpu:             385.5 elap:             108.8
 (Enter /gpfs/fs1/soft/bebop/software/custom-built/gaussian/16-c.02/g16/l601.exe)
 Copying SCF densities to generalized density rwf, IOpCl= 1 IROHF=0.

 **********************************************************************

            Population analysis using the SCF Density.

 **********************************************************************

 Orbital symmetries:
 Alpha Orbitals:
       Occupied  (A) (A) (A) (A) (A) (A) (A) (A) (A) (A) (A) (A)
                 (A) (A) (A) (A) (A) (A) (A) (A) (A) (A) (A) (A)
                 (A) (A) (A) (A) (A)
       Virtual   (A) (A) (A) (A) (A) (A) (A) (A) (A) (A) (A) (A)
                 (A) (A) (A) (A) (A) (A) (A) (A) (A) (A) (A) (A)
                 (A) (A) (A) (A) (A) (A) (A) (A) (A) (A) (A) (A)
                 (A) (A) (A) (A) (A) (A) (A) (A) (A) (A) (A) (A)
                 (A) (A) (A) (A) (A) (A) (A) (A) (A) (A) (A) (A)
                 (A) (A) (A) (A) (A) (A) (A) (A) (A) (A) (A) (A)
                 (A) (A) (A) (A) (A) (A) (A) (A) (A) (A) (A) (A)
                 (A) (A) (A) (A) (A) (A) (A) (A) (A) (A) (A) (A)
                 (A) (A) (A) (A) (A) (A) (A) (A) (A) (A) (A) (A)
                 (A) (A) (A) (A) (A) (A) (A) (A) (A) (A) (A) (A)
                 (A) (A) (A) (A) (A) (A) (A) (A) (A) (A) (A) (A)
                 (A) (A) (A) (A) (A) (A) (A) (A) (A) (A) (A) (A)
                 (A) (A) (A) (A) (A) (A) (A) (A) (A) (A) (A) (A)
                 (A) (A) (A) (A) (A) (A) (A) (A) (A) (A) (A) (A)
                 (A) (A) (A) (A) (A) (A) (A) (A) (A) (A) (A) (A)
                 (A) (A) (A) (A) (A) (A) (A) (A) (A) (A) (A) (A)
                 (A) (A) (A) (A) (A) (A) (A) (A) (A) (A) (A) (A)
                 (A) (A) (A) (A) (A) (A) (A) (A) (A) (A) (A) (A)
                 (A) (A) (A) (A) (A) (A) (A) (A) (A) (A) (A) (A)
                 (A) (A) (A) (A) (A) (A) (A) (A) (A) (A) (A) (A)
                 (A) (A) (A) (A) (A) (A) (A) (A) (A) (A) (A) (A)
                 (A) (A) (A) (A) (A) (A) (A) (A) (A) (A) (A) (A)
                 (A) (A) (A)
 Beta  Orbitals:
       Occupied  (A) (A) (A) (A) (A) (A) (A) (A) (A) (A) (A) (A)
                 (A) (A) (A) (A) (A) (A) (A) (A) (A) (A) (A) (A)
                 (A) (A) (A) (A)
       Virtual   (A) (A) (A) (A) (A) (A) (A) (A) (A) (A) (A) (A)
                 (A) (A) (A) (A) (A) (A) (A) (A) (A) (A) (A) (A)
                 (A) (A) (A) (A) (A) (A) (A) (A) (A) (A) (A) (A)
                 (A) (A) (A) (A) (A) (A) (A) (A) (A) (A) (A) (A)
                 (A) (A) (A) (A) (A) (A) (A) (A) (A) (A) (A) (A)
                 (A) (A) (A) (A) (A) (A) (A) (A) (A) (A) (A) (A)
                 (A) (A) (A) (A) (A) (A) (A) (A) (A) (A) (A) (A)
                 (A) (A) (A) (A) (A) (A) (A) (A) (A) (A) (A) (A)
                 (A) (A) (A) (A) (A) (A) (A) (A) (A) (A) (A) (A)
                 (A) (A) (A) (A) (A) (A) (A) (A) (A) (A) (A) (A)
                 (A) (A) (A) (A) (A) (A) (A) (A) (A) (A) (A) (A)
                 (A) (A) (A) (A) (A) (A) (A) (A) (A) (A) (A) (A)
                 (A) (A) (A) (A) (A) (A) (A) (A) (A) (A) (A) (A)
                 (A) (A) (A) (A) (A) (A) (A) (A) (A) (A) (A) (A)
                 (A) (A) (A) (A) (A) (A) (A) (A) (A) (A) (A) (A)
                 (A) (A) (A) (A) (A) (A) (A) (A) (A) (A) (A) (A)
                 (A) (A) (A) (A) (A) (A) (A) (A) (A) (A) (A) (A)
                 (A) (A) (A) (A) (A) (A) (A) (A) (A) (A) (A) (A)
                 (A) (A) (A) (A) (A) (A) (A) (A) (A) (A) (A) (A)
                 (A) (A) (A) (A) (A) (A) (A) (A) (A) (A) (A) (A)
                 (A) (A) (A) (A) (A) (A) (A) (A) (A) (A) (A) (A)
                 (A) (A) (A) (A) (A) (A) (A) (A) (A) (A) (A) (A)
                 (A) (A) (A) (A)
 The electronic state is 2-A.
 Alpha  occ. eigenvalues -- -102.91259 -19.77149 -10.69867 -10.69625 -10.63532
 Alpha  occ. eigenvalues --  -10.62883  -9.90336  -7.54409  -7.53758  -7.53756
 Alpha  occ. eigenvalues --   -1.25019  -0.94214  -0.88796  -0.87694  -0.75332
 Alpha  occ. eigenvalues --   -0.66786  -0.60473  -0.55299  -0.53366  -0.51329
 Alpha  occ. eigenvalues --   -0.50765  -0.49187  -0.47651  -0.44987  -0.41217
 Alpha  occ. eigenvalues --   -0.38501  -0.37467  -0.37369  -0.27565
 Alpha virt. eigenvalues --    0.06857   0.09874   0.10483   0.12776   0.13337
 Alpha virt. eigenvalues --    0.14201   0.15176   0.15417   0.18421   0.19640
 Alpha virt. eigenvalues --    0.20666   0.22516   0.25374   0.27364   0.27953
 Alpha virt. eigenvalues --    0.31785   0.34182   0.34691   0.37522   0.38797
 Alpha virt. eigenvalues --    0.40151   0.41084   0.41814   0.43278   0.44054
 Alpha virt. eigenvalues --    0.45443   0.48566   0.49555   0.50296   0.50802
 Alpha virt. eigenvalues --    0.51611   0.52319   0.53117   0.53955   0.54531
 Alpha virt. eigenvalues --    0.55897   0.55992   0.57279   0.59163   0.60649
 Alpha virt. eigenvalues --    0.62901   0.63561   0.65418   0.68997   0.72908
 Alpha virt. eigenvalues --    0.75655   0.76243   0.79090   0.82965   0.83699
 Alpha virt. eigenvalues --    0.88255   0.89040   0.90806   0.91035   0.95717
 Alpha virt. eigenvalues --    0.96549   0.99086   1.02859   1.04077   1.06048
 Alpha virt. eigenvalues --    1.06633   1.08102   1.08551   1.10860   1.12591
 Alpha virt. eigenvalues --    1.14288   1.17140   1.20151   1.20881   1.22288
 Alpha virt. eigenvalues --    1.25613   1.28142   1.30251   1.31089   1.33004
 Alpha virt. eigenvalues --    1.33760   1.34711   1.38439   1.39838   1.40496
 Alpha virt. eigenvalues --    1.40906   1.42055   1.45214   1.47782   1.51610
 Alpha virt. eigenvalues --    1.52719   1.56272   1.59852   1.60895   1.64128
 Alpha virt. eigenvalues --    1.66878   1.78820   1.79592   1.86670   1.89307
 Alpha virt. eigenvalues --    2.00486   2.02055   2.02665   2.03860   2.04868
 Alpha virt. eigenvalues --    2.05123   2.05825   2.12145   2.17036   2.17406
 Alpha virt. eigenvalues --    2.21474   2.23390   2.23399   2.24859   2.26372
 Alpha virt. eigenvalues --    2.33487   2.34068   2.36572   2.37288   2.38711
 Alpha virt. eigenvalues --    2.40095   2.42865   2.48202   2.48985   2.51290
 Alpha virt. eigenvalues --    2.52640   2.57628   2.59513   2.62338   2.66456
 Alpha virt. eigenvalues --    2.69937   2.72489   2.74673   2.77803   2.80419
 Alpha virt. eigenvalues --    2.81858   2.84744   2.84855   2.87254   2.89163
 Alpha virt. eigenvalues --    2.90467   2.92960   2.95986   2.96894   2.99026
 Alpha virt. eigenvalues --    2.99846   3.03156   3.04454   3.04927   3.08504
 Alpha virt. eigenvalues --    3.10513   3.11720   3.14722   3.15094   3.17351
 Alpha virt. eigenvalues --    3.20709   3.21038   3.23107   3.25004   3.27329
 Alpha virt. eigenvalues --    3.30982   3.31477   3.36261   3.37087   3.39791
 Alpha virt. eigenvalues --    3.41518   3.41878   3.44397   3.45278   3.48216
 Alpha virt. eigenvalues --    3.49452   3.52491   3.53191   3.55233   3.56911
 Alpha virt. eigenvalues --    3.57917   3.59422   3.60352   3.62241   3.63770
 Alpha virt. eigenvalues --    3.68750   3.69532   3.71500   3.77002   3.78422
 Alpha virt. eigenvalues --    3.81427   3.86748   3.89109   3.89370   3.92417
 Alpha virt. eigenvalues --    3.93995   3.95398   3.96716   3.96989   4.01280
 Alpha virt. eigenvalues --    4.02190   4.05332   4.06261   4.11619   4.14022
 Alpha virt. eigenvalues --    4.15268   4.17024   4.19676   4.21345   4.22468
 Alpha virt. eigenvalues --    4.24635   4.25211   4.26581   4.29502   4.32608
 Alpha virt. eigenvalues --    4.36656   4.38040   4.39762   4.42151   4.42485
 Alpha virt. eigenvalues --    4.44295   4.48507   4.52870   4.55674   4.59737
 Alpha virt. eigenvalues --    4.64632   4.67511   4.71308   4.80919   4.87167
 Alpha virt. eigenvalues --    4.91874   4.93794   4.97531   4.97900   5.02824
 Alpha virt. eigenvalues --    5.04687   5.10632   5.13214   5.18272   5.21913
 Alpha virt. eigenvalues --    5.25716   5.26316   5.29579   5.30210   5.32927
 Alpha virt. eigenvalues --    5.35282   5.40339   5.44371   5.45530   5.48850
 Alpha virt. eigenvalues --    5.49250   5.51245   5.53406   5.54796   5.67793
 Alpha virt. eigenvalues --    5.71484   5.85188   5.91500   5.94299   5.96846
 Alpha virt. eigenvalues --    6.03055   6.06206   6.09186   6.13842   6.25050
 Alpha virt. eigenvalues --    6.48448   6.54259   6.82537   6.92519   7.05762
 Alpha virt. eigenvalues --    7.16875   7.41753   9.73949  11.11213  12.46696
 Alpha virt. eigenvalues --   13.57661  14.15540
  Beta  occ. eigenvalues -- -102.91175 -19.76540 -10.69639 -10.68277 -10.63494
  Beta  occ. eigenvalues --  -10.62876  -9.90251  -7.54103  -7.53710  -7.53708
  Beta  occ. eigenvalues --   -1.23611  -0.93568  -0.88274  -0.86599  -0.74147
  Beta  occ. eigenvalues --   -0.65328  -0.57221  -0.54277  -0.52323  -0.50850
  Beta  occ. eigenvalues --   -0.50055  -0.48643  -0.47240  -0.44364  -0.38018
  Beta  occ. eigenvalues --   -0.37741  -0.37310  -0.37053
  Beta virt. eigenvalues --   -0.01853   0.07035   0.10001   0.10822   0.13108
  Beta virt. eigenvalues --    0.13405   0.14386   0.15481   0.16894   0.19233
  Beta virt. eigenvalues --    0.20892   0.21047   0.23090   0.25545   0.27716
  Beta virt. eigenvalues --    0.28201   0.32065   0.34429   0.35075   0.38476
  Beta virt. eigenvalues --    0.39208   0.41090   0.41735   0.42403   0.43480
  Beta virt. eigenvalues --    0.44456   0.46259   0.48827   0.50385   0.50407
  Beta virt. eigenvalues --    0.50978   0.51713   0.52697   0.53298   0.54135
  Beta virt. eigenvalues --    0.55327   0.56048   0.56171   0.57489   0.59434
  Beta virt. eigenvalues --    0.61090   0.63391   0.63990   0.66807   0.69280
  Beta virt. eigenvalues --    0.73269   0.76248   0.77671   0.79573   0.83701
  Beta virt. eigenvalues --    0.84120   0.88907   0.89429   0.91295   0.91347
  Beta virt. eigenvalues --    0.96224   0.96751   0.99289   1.03156   1.04250
  Beta virt. eigenvalues --    1.06463   1.06802   1.08424   1.08865   1.11295
  Beta virt. eigenvalues --    1.13147   1.14557   1.17526   1.20505   1.21230
  Beta virt. eigenvalues --    1.22755   1.26014   1.28587   1.30861   1.31335
  Beta virt. eigenvalues --    1.33279   1.34979   1.35469   1.38650   1.40094
  Beta virt. eigenvalues --    1.40637   1.41344   1.42423   1.45616   1.48409
  Beta virt. eigenvalues --    1.51855   1.52988   1.56589   1.60088   1.61372
  Beta virt. eigenvalues --    1.64894   1.67324   1.79495   1.80533   1.87636
  Beta virt. eigenvalues --    1.89996   2.01529   2.02577   2.03205   2.04368
  Beta virt. eigenvalues --    2.05102   2.05457   2.06013   2.12804   2.17287
  Beta virt. eigenvalues --    2.17658   2.22094   2.23410   2.23417   2.25493
  Beta virt. eigenvalues --    2.26733   2.33889   2.34313   2.36820   2.37547
  Beta virt. eigenvalues --    2.39468   2.40704   2.43546   2.48647   2.49469
  Beta virt. eigenvalues --    2.51585   2.53086   2.58337   2.60432   2.62874
  Beta virt. eigenvalues --    2.66967   2.70240   2.73193   2.75326   2.78023
  Beta virt. eigenvalues --    2.81401   2.82562   2.85243   2.85520   2.87586
  Beta virt. eigenvalues --    2.89432   2.90656   2.93369   2.96715   2.97015
  Beta virt. eigenvalues --    2.99872   3.00319   3.03915   3.04860   3.05359
  Beta virt. eigenvalues --    3.09078   3.11095   3.12139   3.15178   3.15750
  Beta virt. eigenvalues --    3.17956   3.21199   3.21314   3.23437   3.25639
  Beta virt. eigenvalues --    3.27707   3.31847   3.32471   3.36913   3.37565
  Beta virt. eigenvalues --    3.40417   3.42141   3.42816   3.44996   3.45718
  Beta virt. eigenvalues --    3.48346   3.49788   3.52798   3.53497   3.55712
  Beta virt. eigenvalues --    3.57280   3.58116   3.60187   3.61560   3.62998
  Beta virt. eigenvalues --    3.64646   3.69266   3.69801   3.71851   3.77780
  Beta virt. eigenvalues --    3.78788   3.81673   3.86913   3.89170   3.89552
  Beta virt. eigenvalues --    3.92442   3.94345   3.95551   3.96912   3.97278
  Beta virt. eigenvalues --    4.01742   4.02384   4.05716   4.06401   4.11921
  Beta virt. eigenvalues --    4.14413   4.15645   4.17242   4.19839   4.21808
  Beta virt. eigenvalues --    4.22731   4.25042   4.25703   4.26995   4.29679
  Beta virt. eigenvalues --    4.32955   4.37107   4.38432   4.40083   4.42649
  Beta virt. eigenvalues --    4.42826   4.44617   4.48851   4.53202   4.56102
  Beta virt. eigenvalues --    4.60088   4.65018   4.67862   4.72076   4.81292
  Beta virt. eigenvalues --    4.87461   4.92044   4.94142   4.97916   4.98079
  Beta virt. eigenvalues --    5.03463   5.04947   5.10939   5.13594   5.18418
  Beta virt. eigenvalues --    5.22157   5.25998   5.26512   5.29776   5.30442
  Beta virt. eigenvalues --    5.33317   5.35666   5.40551   5.44594   5.45719
  Beta virt. eigenvalues --    5.49289   5.49513   5.51413   5.54017   5.55008
  Beta virt. eigenvalues --    5.68506   5.71608   5.85685   5.91854   5.94706
  Beta virt. eigenvalues --    5.97049   6.03613   6.06428   6.09891   6.14371
  Beta virt. eigenvalues --    6.25631   6.48578   6.54797   6.83890   6.94024
  Beta virt. eigenvalues --    7.07186   7.17378   7.42067   9.74844  11.11971
  Beta virt. eigenvalues --   12.47103  13.57759  14.15660
          Condensed to atoms (all electrons):
               1          2          3          4          5          6
     1  C    4.835630   0.353146   0.353667   0.420145   0.157821  -0.028864
     2  C    0.353146   4.810460  -0.051531  -0.037308  -0.015663  -0.001948
     3  C    0.353667  -0.051531   5.155165  -0.032715   0.243418   0.329586
     4  H    0.420145  -0.037308  -0.032715   0.522729  -0.016984   0.001866
     5  O    0.157821  -0.015663   0.243418  -0.016984   7.954169  -0.026878
     6  C   -0.028864  -0.001948   0.329586   0.001866  -0.026878   4.815220
     7  H   -0.003568   0.000718   0.060053  -0.001797  -0.000375  -0.004391
     8  H   -0.039354   0.408940   0.001462   0.004969   0.003533  -0.002253
     9  H   -0.032107   0.407686   0.007021  -0.004722  -0.003873   0.000132
    10  H   -0.043018   0.400691   0.000365  -0.000226   0.004415  -0.000746
    11  H    0.007274  -0.000241  -0.042267  -0.000178  -0.002678   0.413847
    12  H   -0.000705  -0.000561  -0.035112   0.000414   0.003392   0.401163
    13  H   -0.004768   0.001150  -0.030260  -0.000340   0.002452   0.384159
    14  Cl   0.000442  -0.000006  -0.036247   0.004595   0.000603   0.002430
               7          8          9         10         11         12
     1  C   -0.003568  -0.039354  -0.032107  -0.043018   0.007274  -0.000705
     2  C    0.000718   0.408940   0.407686   0.400691  -0.000241  -0.000561
     3  C    0.060053   0.001462   0.007021   0.000365  -0.042267  -0.035112
     4  H   -0.001797   0.004969  -0.004722  -0.000226  -0.000178   0.000414
     5  O   -0.000375   0.003533  -0.003873   0.004415  -0.002678   0.003392
     6  C   -0.004391  -0.002253   0.000132  -0.000746   0.413847   0.401163
     7  H    0.405704   0.000036  -0.000044  -0.000010  -0.001132  -0.000626
     8  H    0.000036   0.569314  -0.028259  -0.026383  -0.000219   0.000453
     9  H   -0.000044  -0.028259   0.570439  -0.030449   0.000078  -0.000036
    10  H   -0.000010  -0.026383  -0.030449   0.592079  -0.000082   0.000040
    11  H   -0.001132  -0.000219   0.000078  -0.000082   0.555775  -0.024901
    12  H   -0.000626   0.000453  -0.000036   0.000040  -0.024901   0.569824
    13  H    0.001077   0.001895  -0.000383   0.000710  -0.031523  -0.028321
    14  Cl   0.345519  -0.000004   0.000004  -0.000004   0.000470   0.001550
              13         14
     1  C   -0.004768   0.000442
     2  C    0.001150  -0.000006
     3  C   -0.030260  -0.036247
     4  H   -0.000340   0.004595
     5  O    0.002452   0.000603
     6  C    0.384159   0.002430
     7  H    0.001077   0.345519
     8  H    0.001895  -0.000004
     9  H   -0.000383   0.000004
    10  H    0.000710  -0.000004
    11  H   -0.031523   0.000470
    12  H   -0.028321   0.001550
    13  H    0.602833  -0.000229
    14  Cl  -0.000229  16.922468
          Atomic-Atomic Spin Densities.
               1          2          3          4          5          6
     1  C   -0.000577  -0.002023  -0.028010   0.005900   0.007047   0.012261
     2  C   -0.002023   0.003842  -0.003424  -0.000800   0.009061  -0.002895
     3  C   -0.028010  -0.003424   0.956480  -0.003971  -0.119381  -0.038263
     4  H    0.005900  -0.000800  -0.003971  -0.002383   0.001269   0.001147
     5  O    0.007047   0.009061  -0.119381   0.001269   0.235187   0.000647
     6  C    0.012261  -0.002895  -0.038263   0.001147   0.000647   0.022330
     7  H   -0.002783   0.000218   0.041577  -0.000396  -0.002695  -0.003736
     8  H    0.000318   0.000729  -0.001418  -0.000201   0.000097  -0.000123
     9  H   -0.000727  -0.002725   0.001838   0.001213  -0.001881   0.000243
    10  H   -0.001203   0.002043  -0.002135  -0.001235   0.000538  -0.000464
    11  H    0.000566  -0.000223  -0.009981   0.000090   0.000220   0.010429
    12  H    0.000172   0.000094  -0.002161  -0.000048  -0.000116   0.004198
    13  H   -0.004805   0.002016  -0.011662  -0.000335   0.005137  -0.014949
    14  Cl   0.002496  -0.000132  -0.037737   0.000883   0.002046   0.003199
               7          8          9         10         11         12
     1  C   -0.002783   0.000318  -0.000727  -0.001203   0.000566   0.000172
     2  C    0.000218   0.000729  -0.002725   0.002043  -0.000223   0.000094
     3  C    0.041577  -0.001418   0.001838  -0.002135  -0.009981  -0.002161
     4  H   -0.000396  -0.000201   0.001213  -0.001235   0.000090  -0.000048
     5  O   -0.002695   0.000097  -0.001881   0.000538   0.000220  -0.000116
     6  C   -0.003736  -0.000123   0.000243  -0.000464   0.010429   0.004198
     7  H   -0.027471   0.000014  -0.000031   0.000072  -0.000686   0.000016
     8  H    0.000014  -0.000908  -0.000088   0.000061  -0.000040  -0.000031
     9  H   -0.000031  -0.000088   0.011135  -0.003444   0.000020   0.000001
    10  H    0.000072   0.000061  -0.003444   0.005065  -0.000035  -0.000029
    11  H   -0.000686  -0.000040   0.000020  -0.000035   0.010719   0.000451
    12  H    0.000016  -0.000031   0.000001  -0.000029   0.000451  -0.002428
    13  H    0.000635   0.000788  -0.000489   0.000984  -0.009855  -0.000336
    14  Cl  -0.009199  -0.000008   0.000015  -0.000046   0.000585  -0.000011
              13         14
     1  C   -0.004805   0.002496
     2  C    0.002016  -0.000132
     3  C   -0.011662  -0.037737
     4  H   -0.000335   0.000883
     5  O    0.005137   0.002046
     6  C   -0.014949   0.003199
     7  H    0.000635  -0.009199
     8  H    0.000788  -0.000008
     9  H   -0.000489   0.000015
    10  H    0.000984  -0.000046
    11  H   -0.009855   0.000585
    12  H   -0.000336  -0.000011
    13  H    0.088821  -0.000359
    14  Cl  -0.000359   0.112158
 Mulliken charges and spin densities:
               1          2
     1  C    0.024259  -0.011367
     2  C   -0.275530   0.005781
     3  C    0.077395   0.741756
     4  H    0.139553   0.001135
     5  O   -0.303353   0.137177
     6  C   -0.283323  -0.005976
     7  H    0.198836  -0.004465
     8  H    0.105871  -0.000808
     9  H    0.114512   0.005080
    10  H    0.102619   0.000172
    11  H    0.125777   0.002262
    12  H    0.113427  -0.000228
    13  H    0.101550   0.055591
    14  Cl  -0.241591   0.073892
 Sum of Mulliken charges =  -0.00000   1.00000
 Mulliken charges and spin densities with hydrogens summed into heavy atoms:
               1          2
     1  C    0.163812  -0.010233
     2  C    0.047470   0.010224
     3  C    0.077395   0.741756
     5  O   -0.303353   0.137177
     6  C    0.057431   0.051649
    14  Cl  -0.042755   0.069427
 Electronic spatial extent (au):  <R**2>=           1118.4541
 Charge=             -0.0000 electrons
 Dipole moment (field-independent basis, Debye):
    X=             -2.8638    Y=              0.4957    Z=             -1.7871  Tot=              3.4118
 Quadrupole moment (field-independent basis, Debye-Ang):
   XX=            -48.0864   YY=            -40.7725   ZZ=            -47.5811
   XY=              1.5835   XZ=              2.7298   YZ=              0.1684
 Traceless Quadrupole moment (field-independent basis, Debye-Ang):
   XX=             -2.6064   YY=              4.7075   ZZ=             -2.1011
   XY=              1.5835   XZ=              2.7298   YZ=              0.1684
 Octapole moment (field-independent basis, Debye-Ang**2):
  XXX=            -13.9421  YYY=              0.2806  ZZZ=             -1.3763  XYY=             -2.7710
  XXY=             -2.4935  XXZ=             -1.7195  XZZ=              3.5146  YZZ=              0.2102
  YYZ=              1.8469  XYZ=              0.1526
 Hexadecapole moment (field-independent basis, Debye-Ang**3):
 XXXX=          -1017.4576 YYYY=           -298.7978 ZZZZ=           -139.4589 XXXY=             -3.4868
 XXXZ=             -5.0949 YYYX=              0.6292 YYYZ=              1.2028 ZZZX=              0.5080
 ZZZY=              1.3592 XXYY=           -216.3226 XXZZ=           -199.4789 YYZZ=            -71.8700
 XXYZ=             -0.5683 YYXZ=             -2.2330 ZZXY=              1.8796
 N-N= 2.742624153151D+02 E-N=-2.183780152695D+03  KE= 6.902235773562D+02
                          Isotropic Fermi Contact Couplings
        Atom                 a.u.       MegaHertz       Gauss      10(-4) cm-1
     1  C(13)              0.00242       2.71739       0.96963       0.90642
     2  C(13)             -0.00240      -2.69728      -0.96246      -0.89971
     3  C(13)              0.20174     226.79195      80.92501      75.64965
     4  H(1)               0.00150       6.70270       2.39169       2.23578
     5  O(17)              0.03793     -22.99458      -8.20504      -7.67017
     6  C(13)              0.02692      30.26226      10.79833      10.09440
     7  H(1)              -0.00569     -25.45264      -9.08214      -8.49009
     8  H(1)              -0.00015      -0.67882      -0.24222      -0.22643
     9  H(1)               0.00217       9.70237       3.46205       3.23636
    10  H(1)               0.00074       3.28789       1.17320       1.09672
    11  H(1)               0.00334      14.92716       5.32638       4.97916
    12  H(1)               0.00108       4.82318       1.72103       1.60884
    13  H(1)               0.02114      94.47771      33.71199      31.51437
    14  Cl(35)             0.04981      21.84074       7.79332       7.28529
 --------------------------------------------------------
       Center         ----  Spin Dipole Couplings  ----
                      3XX-RR        3YY-RR        3ZZ-RR
 --------------------------------------------------------
     1   Atom        0.002909      0.011651     -0.014560
     2   Atom        0.012579     -0.006067     -0.006512
     3   Atom        0.795305     -0.392007     -0.403299
     4   Atom       -0.009397      0.017755     -0.008358
     5   Atom        0.708666     -0.349261     -0.359405
     6   Atom       -0.028178      0.051587     -0.023409
     7   Atom        0.075069     -0.033993     -0.041076
     8   Atom        0.007545     -0.003997     -0.003548
     9   Atom        0.001829      0.000561     -0.002390
    10   Atom        0.000313     -0.001311      0.000998
    11   Atom       -0.009193      0.019555     -0.010361
    12   Atom       -0.008358      0.004371      0.003987
    13   Atom        0.003353      0.004432     -0.007785
    14   Atom        0.436533     -0.188757     -0.247775
 --------------------------------------------------------
                        XY            XZ            YZ
 --------------------------------------------------------
     1   Atom        0.026039     -0.009564     -0.000991
     2   Atom        0.006575      0.004773      0.003695
     3   Atom       -0.242895      0.181700     -0.027322
     4   Atom        0.004286      0.000762      0.004089
     5   Atom       -0.335564      0.315393     -0.062417
     6   Atom       -0.030077      0.010646     -0.029827
     7   Atom       -0.032169     -0.011858      0.003481
     8   Atom        0.002113      0.004663      0.000067
     9   Atom        0.004143      0.001497      0.000162
    10   Atom        0.003110      0.004125      0.002939
    11   Atom        0.001203      0.000662      0.005484
    12   Atom        0.001458     -0.002490     -0.015839
    13   Atom       -0.005956      0.002668     -0.005595
    14   Atom       -0.217169     -0.082451      0.025947
 --------------------------------------------------------


 ---------------------------------------------------------------------------------
              Anisotropic Spin Dipole Couplings in Principal Axis System
 ---------------------------------------------------------------------------------

       Atom             a.u.   MegaHertz   Gauss  10(-4) cm-1        Axes

              Baa    -0.0242    -3.244    -1.158    -1.082  0.6533 -0.4582  0.6027
     1 C(13)  Bbb    -0.0105    -1.409    -0.503    -0.470 -0.3836  0.4860  0.7853
              Bcc     0.0347     4.653     1.660     1.552  0.6527  0.7442 -0.1418
 
              Baa    -0.0101    -1.351    -0.482    -0.451 -0.0735  0.7392 -0.6694
     2 C(13)  Bbb    -0.0060    -0.809    -0.289    -0.270 -0.3906  0.5963  0.7013
              Bcc     0.0161     2.160     0.771     0.720  0.9176  0.3131  0.2449
 
              Baa    -0.4444   -59.628   -21.277   -19.890  0.2360  0.8427 -0.4838
     3 C(13)  Bbb    -0.4252   -57.057   -20.359   -19.032 -0.0283  0.5037  0.8634
              Bcc     0.8695   116.685    41.636    38.922  0.9713 -0.1901  0.1427
 
              Baa    -0.0101    -5.374    -1.918    -1.793  0.9841 -0.1345 -0.1164
     4 H(1)   Bbb    -0.0090    -4.788    -1.708    -1.597  0.0936 -0.1652  0.9818
              Bcc     0.0190    10.162     3.626     3.390  0.1513  0.9771  0.1500
 
              Baa    -0.4715    34.114    12.173    11.379  0.3635  0.6647 -0.6528
     5 O(17)  Bbb    -0.4169    30.168    10.765    10.063  0.0078  0.6985  0.7155
              Bcc     0.8884   -64.282   -22.938   -21.442  0.9316 -0.2651  0.2487
 
              Baa    -0.0383    -5.143    -1.835    -1.716  0.9526  0.2766 -0.1268
     6 C(13)  Bbb    -0.0338    -4.539    -1.619    -1.514  0.0270  0.3381  0.9407
              Bcc     0.0721     9.682     3.455     3.229 -0.3031  0.8996 -0.3145
 
              Baa    -0.0429   -22.873    -8.161    -7.629  0.2093  0.9044 -0.3718
     7 H(1)   Bbb    -0.0422   -22.512    -8.033    -7.509  0.1857  0.3365  0.9232
              Bcc     0.0851    45.384    16.194    15.139  0.9601 -0.2623 -0.0975
 
              Baa    -0.0056    -2.978    -1.063    -0.993 -0.3624  0.4490  0.8167
     8 H(1)   Bbb    -0.0040    -2.114    -0.754    -0.705  0.0293  0.8814 -0.4715
              Bcc     0.0095     5.092     1.817     1.698  0.9316  0.1470  0.3326
 
              Baa    -0.0037    -1.951    -0.696    -0.651 -0.5764  0.5426  0.6111
     9 H(1)   Bbb    -0.0019    -1.027    -0.366    -0.342  0.3017 -0.5537  0.7762
              Bcc     0.0056     2.978     1.063     0.993  0.7595  0.6317  0.1554
 
              Baa    -0.0038    -2.006    -0.716    -0.669  0.7280 -0.6449 -0.2327
    10 H(1)   Bbb    -0.0032    -1.724    -0.615    -0.575 -0.3097 -0.6122  0.7275
              Bcc     0.0070     3.730     1.331     1.244  0.6116  0.4576  0.6454
 
              Baa    -0.0114    -6.095    -2.175    -2.033 -0.1985 -0.1634  0.9664
    11 H(1)   Bbb    -0.0092    -4.888    -1.744    -1.630  0.9791 -0.0770  0.1881
              Bcc     0.0206    10.983     3.919     3.664  0.0436  0.9836  0.1752
 
              Baa    -0.0118    -6.314    -2.253    -2.106  0.2249  0.6707  0.7068
    12 H(1)   Bbb    -0.0085    -4.512    -1.610    -1.505  0.9695 -0.2262 -0.0939
              Bcc     0.0203    10.826     3.863     3.611  0.0969  0.7064 -0.7011
 
              Baa    -0.0100    -5.319    -1.898    -1.774 -0.0305  0.3509  0.9359
    13 H(1)   Bbb    -0.0017    -0.923    -0.329    -0.308  0.7874  0.5852 -0.1937
              Bcc     0.0117     6.243     2.228     2.082 -0.6157  0.7310 -0.2942
 
              Baa    -0.2576   -13.482    -4.811    -4.497  0.0648 -0.1664  0.9839
    14 Cl(35) Bbb    -0.2568   -13.439    -4.795    -4.483  0.3110  0.9403  0.1385
              Bcc     0.5144    26.920     9.606     8.980  0.9482 -0.2970 -0.1127
 

 ---------------------------------------------------------------------------------

 No NMR shielding tensors so no spin-rotation constants.
 Leave Link  601 at Mon Oct  7 11:57:30 2024, MaxMem=  2684354560 cpu:               1.3 elap:               0.3
 (Enter /gpfs/fs1/soft/bebop/software/custom-built/gaussian/16-c.02/g16/l701.exe)
 ... and contract with generalized density number  2.
 Compute integral first derivatives.
 R6Disp: Adding Grimme-D3(BJ) dispersion energy 1st derivatives to the gradient.
 Leave Link  701 at Mon Oct  7 11:57:31 2024, MaxMem=  2684354560 cpu:               0.8 elap:               0.2
 (Enter /gpfs/fs1/soft/bebop/software/custom-built/gaussian/16-c.02/g16/l702.exe)
 L702 exits ... SP integral derivatives will be done elsewhere.
 Leave Link  702 at Mon Oct  7 11:57:31 2024, MaxMem=  2684354560 cpu:               0.1 elap:               0.0
 (Enter /gpfs/fs1/soft/bebop/software/custom-built/gaussian/16-c.02/g16/l703.exe)
 Integral derivatives from FoFJK, PRISM(SPDF).
 Compute integral first derivatives, UseDBF=F ICtDFT=           0.
 Calling FoFJK, ICntrl=  10002127 FMM=F ISym2X=0 I1Cent= 0 IOpClX= 1 NMat=1 NMatS=1 NMatT=0.
 FoFJK:  IHMeth= 1 ICntrl=10002127 DoSepK=F KAlg= 0 I1Cent=           0 FoldK=F
 IRaf=         0 NMat=       1 IRICut=       1 DoRegI=T DoRafI=F ISym2E= 0 IDoP0=0 IntGTp=1.
 FoFCou: FMM=F IPFlag=           0 FMFlag=      100000 FMFlg1=         800
         NFxFlg=           0 DoJE=F BraDBF=F KetDBF=F FulRan=T
         wScrn=  0.000000 ICntrl=  10002127 IOpCl=  1 I1Cent=           0 NGrid=           0
         NMat0=    1 NMatS0=      1 NMatT0=    0 NMatD0=    1 NMtDS0=    0 NMtDT0=    0
 Symmetry not used in FoFCou.
 Leave Link  703 at Mon Oct  7 11:57:49 2024, MaxMem=  2684354560 cpu:             106.7 elap:              17.9
 (Enter /gpfs/fs1/soft/bebop/software/custom-built/gaussian/16-c.02/g16/l716.exe)
 Dipole        =-1.18222775D+00 1.92662708D-01-6.24008158D-01
 ***** Axes restored to original set *****
 -------------------------------------------------------------------
 Center     Atomic                   Forces (Hartrees/Bohr)
 Number     Number              X              Y              Z
 -------------------------------------------------------------------
      1        6           0.000015199   -0.000013729    0.000002392
      2        6          -0.000017161   -0.000005692    0.000020974
      3        6           0.000018490    0.000040079   -0.000028347
      4        1          -0.000018707    0.000009364   -0.000007835
      5        8          -0.000021260   -0.000031049    0.000005053
      6        6           0.000009225   -0.000028272   -0.000003599
      7        1           0.005893364   -0.010389656    0.016076264
      8        1           0.000006138   -0.000003353    0.000005220
      9        1           0.000014876    0.000011525   -0.000005292
     10        1          -0.000001087   -0.000002777   -0.000000349
     11        1          -0.000013265    0.000017071    0.000022355
     12        1           0.000001896    0.000006529   -0.000002210
     13        1          -0.000000977    0.000003497   -0.000007578
     14       17          -0.005886732    0.010386464   -0.016077049
 -------------------------------------------------------------------
 Cartesian Forces:  Max     0.016077049 RMS     0.004370178
 -----------------------------------------------------------------------------------------------
                       Internal Coordinate Forces (Hartree/Bohr or radian)
  Cent   Atom   N1       Length/X         N2         Alpha/Y        N3         Beta/Z          J
 -----------------------------------------------------------------------------------------------
      1  C 
      2  C        1   0.000021(     1)
      3  C        1   0.000009(     2)      2  -0.000002(    15)
      4  H        1   0.000022(     3)      2  -0.000004(    16)      3   0.000006(    28)     0
      5  O        3   0.000038(     4)      1  -0.000011(    17)      2   0.000000(    29)     0
      6  C        3  -0.000002(     5)      1  -0.000031(    18)      5  -0.000005(    30)     0
      7  H        3  -0.000002(     6)      1   0.000003(    19)      5  -0.000000(    31)     0
      8  H        2   0.000008(     7)      1   0.000005(    20)      3   0.000002(    32)     0
      9  H        2  -0.000019(     8)      1   0.000003(    21)      8   0.000001(    33)     0
     10  H        2  -0.000003(     9)      1   0.000001(    22)      8   0.000003(    34)     0
     11  H        6  -0.000031(    10)      3   0.000009(    23)      1  -0.000008(    35)     0
     12  H        6   0.000007(    11)      3   0.000000(    24)     11  -0.000003(    36)     0
     13  H        6  -0.000008(    12)      3   0.000003(    25)     11  -0.000002(    37)     0
         X        7   0.000000(    13)      3   0.000000(    26)      6  -0.000002(    38)     0
     14  Cl       7   0.020025(    14)     14   0.000001(    27)      3  -0.000022(    39)     0
 -----------------------------------------------------------------------------------------------
 Internal  Forces:  Max     0.020025076 RMS     0.003206602
 Force constants in internal coordinates: 
                1             2             3             4             5 
      1  0.326941D+00
      2  0.000000D+00  0.543165D+00
      3  0.000000D+00  0.000000D+00  0.355985D+00
      4  0.000000D+00  0.387230D-01  0.000000D+00  0.653426D+00
      5  0.000000D+00  0.000000D+00  0.000000D+00  0.000000D+00  0.342736D+00
      6  0.000000D+00  0.000000D+00  0.000000D+00  0.000000D+00  0.000000D+00
      7  0.000000D+00  0.000000D+00  0.000000D+00  0.000000D+00  0.000000D+00
      8  0.000000D+00  0.000000D+00  0.000000D+00  0.000000D+00  0.000000D+00
      9  0.000000D+00  0.000000D+00  0.000000D+00  0.000000D+00  0.000000D+00
     10  0.000000D+00  0.000000D+00  0.000000D+00  0.000000D+00  0.000000D+00
     11  0.000000D+00  0.000000D+00  0.000000D+00  0.000000D+00  0.000000D+00
     12  0.000000D+00  0.000000D+00  0.000000D+00  0.000000D+00  0.000000D+00
     13  0.000000D+00  0.000000D+00  0.000000D+00  0.000000D+00  0.000000D+00
     14  0.000000D+00  0.000000D+00  0.000000D+00  0.000000D+00  0.000000D+00
     15  0.000000D+00  0.872088D-03  0.000000D+00 -0.924352D-03  0.000000D+00
     16  0.000000D+00 -0.917592D-02  0.000000D+00  0.972583D-02  0.000000D+00
     17  0.000000D+00  0.432751D+00  0.000000D+00  0.362704D+00  0.000000D+00
     18  0.000000D+00  0.000000D+00  0.000000D+00  0.000000D+00  0.000000D+00
     19  0.000000D+00  0.000000D+00  0.000000D+00  0.000000D+00  0.000000D+00
     20  0.000000D+00  0.000000D+00  0.000000D+00  0.000000D+00  0.000000D+00
     21  0.000000D+00  0.000000D+00  0.000000D+00  0.000000D+00  0.000000D+00
     22  0.000000D+00  0.000000D+00  0.000000D+00  0.000000D+00  0.000000D+00
     23  0.000000D+00  0.000000D+00  0.000000D+00  0.000000D+00  0.000000D+00
     24  0.000000D+00  0.000000D+00  0.000000D+00  0.000000D+00  0.000000D+00
     25  0.000000D+00  0.000000D+00  0.000000D+00  0.000000D+00  0.000000D+00
     26  0.000000D+00  0.000000D+00  0.000000D+00  0.000000D+00  0.000000D+00
     27  0.000000D+00  0.000000D+00  0.000000D+00  0.000000D+00  0.000000D+00
     28  0.000000D+00  0.118678D-01  0.000000D+00 -0.125790D-01  0.000000D+00
     29  0.000000D+00  0.832584D-02  0.000000D+00 -0.882480D-02  0.000000D+00
     30  0.000000D+00  0.000000D+00  0.000000D+00  0.000000D+00  0.000000D+00
     31  0.000000D+00  0.000000D+00  0.000000D+00  0.000000D+00  0.000000D+00
     32  0.000000D+00 -0.708147D-02  0.000000D+00  0.750586D-02  0.000000D+00
     33  0.000000D+00 -0.236049D-02  0.000000D+00  0.250195D-02  0.000000D+00
     34  0.000000D+00 -0.236049D-02  0.000000D+00  0.250195D-02  0.000000D+00
     35  0.000000D+00  0.000000D+00  0.000000D+00  0.000000D+00  0.000000D+00
     36  0.000000D+00  0.000000D+00  0.000000D+00  0.000000D+00  0.000000D+00
     37  0.000000D+00  0.000000D+00  0.000000D+00  0.000000D+00  0.000000D+00
     38  0.000000D+00  0.000000D+00  0.000000D+00  0.000000D+00  0.000000D+00
     39  0.000000D+00  0.000000D+00  0.000000D+00  0.000000D+00  0.000000D+00
                6             7             8             9            10 
      6  0.473066D-01
      7  0.000000D+00  0.351499D+00
      8  0.000000D+00  0.000000D+00  0.348937D+00
      9  0.000000D+00  0.000000D+00  0.000000D+00  0.347895D+00
     10  0.000000D+00  0.000000D+00  0.000000D+00  0.000000D+00  0.349866D+00
     11  0.000000D+00  0.000000D+00  0.000000D+00  0.000000D+00  0.000000D+00
     12  0.000000D+00  0.000000D+00  0.000000D+00  0.000000D+00  0.000000D+00
     13  0.000000D+00  0.000000D+00  0.000000D+00  0.000000D+00  0.000000D+00
     14  0.000000D+00  0.000000D+00  0.000000D+00  0.000000D+00  0.000000D+00
     15  0.000000D+00  0.000000D+00  0.000000D+00  0.000000D+00  0.000000D+00
     16  0.000000D+00  0.000000D+00  0.000000D+00  0.000000D+00  0.000000D+00
     17  0.000000D+00  0.000000D+00  0.000000D+00  0.000000D+00  0.000000D+00
     18  0.000000D+00  0.000000D+00  0.000000D+00  0.000000D+00  0.000000D+00
     19  0.000000D+00  0.000000D+00  0.000000D+00  0.000000D+00  0.000000D+00
     20  0.000000D+00  0.000000D+00  0.000000D+00  0.000000D+00  0.000000D+00
     21  0.000000D+00  0.000000D+00  0.000000D+00  0.000000D+00  0.000000D+00
     22  0.000000D+00  0.000000D+00  0.000000D+00  0.000000D+00  0.000000D+00
     23  0.000000D+00  0.000000D+00  0.000000D+00  0.000000D+00  0.000000D+00
     24  0.000000D+00  0.000000D+00  0.000000D+00  0.000000D+00  0.000000D+00
     25  0.000000D+00  0.000000D+00  0.000000D+00  0.000000D+00  0.000000D+00
     26  0.000000D+00  0.000000D+00  0.000000D+00  0.000000D+00  0.000000D+00
     27  0.000000D+00  0.000000D+00  0.000000D+00  0.000000D+00  0.000000D+00
     28  0.000000D+00  0.000000D+00  0.000000D+00  0.000000D+00  0.000000D+00
     29  0.000000D+00  0.000000D+00  0.000000D+00  0.000000D+00  0.000000D+00
     30  0.000000D+00  0.000000D+00  0.000000D+00  0.000000D+00  0.000000D+00
     31  0.000000D+00  0.000000D+00  0.000000D+00  0.000000D+00  0.000000D+00
     32  0.000000D+00  0.000000D+00  0.000000D+00  0.000000D+00  0.000000D+00
     33  0.000000D+00  0.000000D+00  0.000000D+00  0.000000D+00  0.000000D+00
     34  0.000000D+00  0.000000D+00  0.000000D+00  0.000000D+00  0.000000D+00
     35  0.000000D+00  0.000000D+00  0.000000D+00  0.000000D+00  0.000000D+00
     36  0.000000D+00  0.000000D+00  0.000000D+00  0.000000D+00  0.000000D+00
[...]
  Beta virt. eigenvalues --    2.19506   2.21876   2.24372   2.24388   2.26685
  Beta virt. eigenvalues --    2.29028   2.33917   2.34488   2.36967   2.38452
  Beta virt. eigenvalues --    2.39216   2.40423   2.42830   2.48328   2.49014
  Beta virt. eigenvalues --    2.51247   2.53713   2.59122   2.62519   2.63806
  Beta virt. eigenvalues --    2.68412   2.73109   2.73340   2.77302   2.78424
  Beta virt. eigenvalues --    2.81756   2.83802   2.84919   2.86113   2.88345
  Beta virt. eigenvalues --    2.90338   2.90715   2.94443   2.96204   2.97665
  Beta virt. eigenvalues --    2.99271   3.02394   3.04154   3.04896   3.05233
  Beta virt. eigenvalues --    3.09947   3.11303   3.12247   3.14670   3.15720
  Beta virt. eigenvalues --    3.17886   3.20847   3.20942   3.22366   3.25400
  Beta virt. eigenvalues --    3.27069   3.30906   3.31585   3.36900   3.37437
  Beta virt. eigenvalues --    3.41233   3.41770   3.43308   3.46082   3.46265
  Beta virt. eigenvalues --    3.48852   3.50968   3.53134   3.54089   3.55791
  Beta virt. eigenvalues --    3.58301   3.59528   3.61301   3.62032   3.63578
  Beta virt. eigenvalues --    3.66324   3.68544   3.70214   3.72514   3.78471
  Beta virt. eigenvalues --    3.78845   3.81501   3.86480   3.89409   3.89851
  Beta virt. eigenvalues --    3.94161   3.95684   3.96255   3.97563   3.99190
  Beta virt. eigenvalues --    4.01241   4.03071   4.05298   4.06797   4.12360
  Beta virt. eigenvalues --    4.13839   4.15808   4.17715   4.19436   4.21151
  Beta virt. eigenvalues --    4.22237   4.25079   4.26454   4.26645   4.29029
  Beta virt. eigenvalues --    4.34087   4.36674   4.37828   4.39929   4.42245
  Beta virt. eigenvalues --    4.42780   4.45285   4.48916   4.54053   4.58176
  Beta virt. eigenvalues --    4.60488   4.67581   4.69990   4.71788   4.82239
  Beta virt. eigenvalues --    4.88585   4.92375   4.94023   4.98028   5.02540
  Beta virt. eigenvalues --    5.05213   5.09593   5.12685   5.15239   5.18368
  Beta virt. eigenvalues --    5.22528   5.26233   5.26608   5.29933   5.31158
  Beta virt. eigenvalues --    5.34430   5.35547   5.40396   5.44869   5.46310
  Beta virt. eigenvalues --    5.48939   5.49280   5.51425   5.53808   5.54868
  Beta virt. eigenvalues --    5.68925   5.72180   5.85412   5.91481   5.94519
  Beta virt. eigenvalues --    5.96918   6.03614   6.06010   6.10145   6.13510
  Beta virt. eigenvalues --    6.25488   6.30663   6.54442   6.84066   6.94608
  Beta virt. eigenvalues --    7.07866   7.16947   7.41882   9.75682  11.18406
  Beta virt. eigenvalues --   12.53060  13.61303  14.20280
          Condensed to atoms (all electrons):
               1          2          3          4          5          6
     1  C    4.844108   0.349404   0.351531   0.420968   0.156508  -0.028973
     2  C    0.349404   4.809943  -0.050452  -0.036178  -0.015375  -0.001948
     3  C    0.351531  -0.050452   5.112530  -0.031733   0.248109   0.330402
     4  H    0.420968  -0.036178  -0.031733   0.514100  -0.016907   0.001917
     5  O    0.156508  -0.015375   0.248109  -0.016907   7.943791  -0.026688
     6  C   -0.028973  -0.001948   0.330402   0.001917  -0.026688   4.813393
     7  H   -0.005295   0.001015   0.103578  -0.002127  -0.000659  -0.006886
     8  H   -0.039470   0.409253   0.001761   0.004805   0.003450  -0.002258
     9  H   -0.031674   0.407604   0.006763  -0.004656  -0.003802   0.000116
    10  H   -0.042908   0.401344   0.000390  -0.000226   0.004323  -0.000610
    11  H    0.007367  -0.000251  -0.040116  -0.000172  -0.002573   0.412332
    12  H   -0.000469  -0.000555  -0.034366   0.000397   0.003305   0.401396
    13  H   -0.005546   0.001078  -0.028642  -0.000331   0.002196   0.386234
    14  Cl   0.000700  -0.000015  -0.060257   0.005786   0.000866   0.003475
               7          8          9         10         11         12
     1  C   -0.005295  -0.039470  -0.031674  -0.042908   0.007367  -0.000469
     2  C    0.001015   0.409253   0.407604   0.401344  -0.000251  -0.000555
     3  C    0.103578   0.001761   0.006763   0.000390  -0.040116  -0.034366
     4  H   -0.002127   0.004805  -0.004656  -0.000226  -0.000172   0.000397
     5  O   -0.000659   0.003450  -0.003802   0.004323  -0.002573   0.003305
     6  C   -0.006886  -0.002258   0.000116  -0.000610   0.412332   0.401396
     7  H    0.400313   0.000056  -0.000057  -0.000023  -0.001716  -0.000751
     8  H    0.000056   0.568354  -0.028112  -0.026210  -0.000209   0.000432
     9  H   -0.000057  -0.028112   0.568007  -0.029845   0.000077  -0.000033
    10  H   -0.000023  -0.026210  -0.029845   0.588694  -0.000079   0.000034
    11  H   -0.001716  -0.000209   0.000077  -0.000079   0.551104  -0.023788
    12  H   -0.000751   0.000432  -0.000033   0.000034  -0.023788   0.563967
    13  H    0.001678   0.001900  -0.000350   0.000612  -0.030879  -0.028429
    14  Cl   0.313322  -0.000005   0.000006  -0.000008   0.000848   0.002253
              13         14
     1  C   -0.005546   0.000700
     2  C    0.001078  -0.000015
     3  C   -0.028642  -0.060257
     4  H   -0.000331   0.005786
     5  O    0.002196   0.000866
     6  C    0.386234   0.003475
     7  H    0.001678   0.313322
     8  H    0.001900  -0.000005
     9  H   -0.000350   0.000006
    10  H    0.000612  -0.000008
    11  H   -0.030879   0.000848
    12  H   -0.028429   0.002253
    13  H    0.597983  -0.000339
    14  Cl  -0.000339  17.010433
          Atomic-Atomic Spin Densities.
               1          2          3          4          5          6
     1  C    0.005924  -0.002590  -0.028141   0.005169   0.005484   0.012309
     2  C   -0.002590   0.002185  -0.002272  -0.000504   0.008373  -0.002623
     3  C   -0.028141  -0.002272   0.875205  -0.003307  -0.113342  -0.036303
     4  H    0.005169  -0.000504  -0.003307  -0.003272   0.001150   0.001068
     5  O    0.005484   0.008373  -0.113342   0.001150   0.237159   0.000415
     6  C    0.012309  -0.002623  -0.036303   0.001068   0.000415   0.024988
     7  H   -0.003578   0.000249   0.063265  -0.000477  -0.003624  -0.005158
     8  H    0.000191   0.000746  -0.001362  -0.000196   0.000158  -0.000121
     9  H   -0.000631  -0.002442   0.001522   0.001130  -0.001784   0.000225
    10  H   -0.001237   0.001983  -0.001787  -0.001154   0.000501  -0.000415
    11  H    0.000694  -0.000203  -0.008982   0.000085   0.000176   0.009102
    12  H    0.000196   0.000085  -0.001923  -0.000044  -0.000118   0.003826
    13  H   -0.004969   0.001760  -0.009418  -0.000302   0.004720  -0.011773
    14  Cl   0.004369  -0.000222  -0.062275   0.001296   0.003717   0.005692
               7          8          9         10         11         12
     1  C   -0.003578   0.000191  -0.000631  -0.001237   0.000694   0.000196
     2  C    0.000249   0.000746  -0.002442   0.001983  -0.000203   0.000085
     3  C    0.063265  -0.001362   0.001522  -0.001787  -0.008982  -0.001923
     4  H   -0.000477  -0.000196   0.001130  -0.001154   0.000085  -0.000044
     5  O   -0.003624   0.000158  -0.001784   0.000501   0.000176  -0.000118
     6  C   -0.005158  -0.000121   0.000225  -0.000415   0.009102   0.003826
     7  H   -0.042822   0.000017  -0.000035   0.000079  -0.000808   0.000017
     8  H    0.000017  -0.000768  -0.000172   0.000116  -0.000040  -0.000032
     9  H   -0.000035  -0.000172   0.010898  -0.003198   0.000019   0.000003
    10  H    0.000079   0.000116  -0.003198   0.004575  -0.000032  -0.000035
    11  H   -0.000808  -0.000040   0.000019  -0.000032   0.009231   0.000415
    12  H    0.000017  -0.000032   0.000003  -0.000035   0.000415  -0.002677
    13  H    0.000811   0.000777  -0.000439   0.000877  -0.008693  -0.000371
    14  Cl  -0.025829  -0.000015   0.000026  -0.000072   0.001065   0.000036
              13         14
     1  C   -0.004969   0.004369
     2  C    0.001760  -0.000222
     3  C   -0.009418  -0.062275
     4  H   -0.000302   0.001296
     5  O    0.004720   0.003717
     6  C   -0.011773   0.005692
     7  H    0.000811  -0.025829
     8  H    0.000777  -0.000015
     9  H   -0.000439   0.000026
    10  H    0.000877  -0.000072
    11  H   -0.008693   0.001065
    12  H   -0.000371   0.000036
    13  H    0.078174  -0.000646
    14  Cl  -0.000646   0.220761
 Mulliken charges and spin densities:
               1          2
     1  C    0.023748  -0.006811
     2  C   -0.274866   0.004525
     3  C    0.090502   0.670879
     4  H    0.144357   0.000644
     5  O   -0.296543   0.142985
     6  C   -0.281903   0.001234
     7  H    0.197554  -0.017895
     8  H    0.106252  -0.000701
     9  H    0.115955   0.005120
    10  H    0.104513   0.000200
    11  H    0.128054   0.002030
    12  H    0.116608  -0.000621
    13  H    0.102833   0.050509
    14  Cl  -0.277066   0.147902
 Sum of Mulliken charges =  -0.00000   1.00000
 Mulliken charges and spin densities with hydrogens summed into heavy atoms:
               1          2
     1  C    0.168105  -0.006166
     2  C    0.051854   0.009144
     3  C    0.090502   0.670879
     5  O   -0.296543   0.142985
     6  C    0.065593   0.053151
    14  Cl  -0.079511   0.130006
 Electronic spatial extent (au):  <R**2>=           1071.5779
 Charge=              0.0000 electrons
 Dipole moment (field-independent basis, Debye):
    X=             -3.4487    Y=              0.6902    Z=             -1.7311  Tot=              3.9200
 Quadrupole moment (field-independent basis, Debye-Ang):
   XX=            -48.6473   YY=            -40.6596   ZZ=            -47.4918
   XY=              1.9388   XZ=              2.6937   YZ=              0.2277
 Traceless Quadrupole moment (field-independent basis, Debye-Ang):
   XX=             -3.0477   YY=              4.9400   ZZ=             -1.8923
   XY=              1.9388   XZ=              2.6937   YZ=              0.2277
 Octapole moment (field-independent basis, Debye-Ang**2):
  XXX=            -18.1507  YYY=              0.6916  ZZZ=             -1.2489  XYY=             -3.1756
  XXY=             -1.9886  XXZ=             -1.2058  XZZ=              2.7160  YZZ=              0.3751
  YYZ=              1.7203  XYZ=              0.0243
 Hexadecapole moment (field-independent basis, Debye-Ang**3):
 XXXX=           -974.5972 YYYY=           -289.3783 ZZZZ=           -136.9993 XXXY=             -0.5818
 XXXZ=             -4.0004 YYYX=              1.2091 YYYZ=              0.9772 ZZZX=              0.9374
 ZZZY=              1.2548 XXYY=           -206.9138 XXZZ=           -190.3183 YYZZ=            -70.1983
 XXYZ=             -0.4964 YYXZ=             -1.8252 ZZXY=              2.2865
 N-N= 2.776635944186D+02 E-N=-2.190523698333D+03  KE= 6.901700402543D+02
                          Isotropic Fermi Contact Couplings
        Atom                 a.u.       MegaHertz       Gauss      10(-4) cm-1
     1  C(13)              0.00241       2.70405       0.96487       0.90197
     2  C(13)             -0.00291      -3.26824      -1.16619      -1.09017
     3  C(13)              0.17634     198.24432      70.73850      66.12719
     4  H(1)               0.00093       4.15342       1.48204       1.38543
     5  O(17)              0.03606     -21.86146      -7.80071      -7.29220
     6  C(13)              0.02430      27.32335       9.74965       9.11409
     7  H(1)              -0.00720     -32.19285     -11.48721     -10.73838
     8  H(1)              -0.00014      -0.62017      -0.22129      -0.20687
     9  H(1)               0.00220       9.82331       3.50520       3.27670
    10  H(1)               0.00074       3.32214       1.18542       1.10815
    11  H(1)               0.00287      12.81055       4.57112       4.27314
    12  H(1)               0.00080       3.57797       1.27671       1.19348
    13  H(1)               0.01970      88.04758      31.41756      29.36951
    14  Cl(35)             0.07896      34.62126      12.35373      11.54841
 --------------------------------------------------------
       Center         ----  Spin Dipole Couplings  ----
                      3XX-RR        3YY-RR        3ZZ-RR
 --------------------------------------------------------
     1   Atom        0.004240      0.009458     -0.013699
     2   Atom        0.012023     -0.006134     -0.005888
     3   Atom        0.726788     -0.341460     -0.385329
     4   Atom       -0.008212      0.016043     -0.007832
     5   Atom        0.689464     -0.309769     -0.379696
     6   Atom       -0.029749      0.054987     -0.025238
     7   Atom        0.104705     -0.046999     -0.057706
     8   Atom        0.007530     -0.004072     -0.003458
     9   Atom        0.002165      0.000180     -0.002345
    10   Atom        0.000757     -0.001637      0.000879
    11   Atom       -0.008401      0.018070     -0.009669
    12   Atom       -0.007604      0.004567      0.003037
    13   Atom        0.003298      0.004693     -0.007991
    14   Atom        0.807287     -0.350079     -0.457208
 --------------------------------------------------------
                        XY            XZ            YZ
 --------------------------------------------------------
     1   Atom        0.026232     -0.009308     -0.001970
     2   Atom        0.005536      0.003756      0.003146
     3   Atom       -0.285272      0.143237     -0.029075
     4   Atom        0.005233      0.000882      0.004584
     5   Atom       -0.401129      0.284394     -0.072633
     6   Atom       -0.027954      0.009262     -0.028782
     7   Atom       -0.046755     -0.017577      0.005462
     8   Atom        0.001388      0.004320     -0.000210
     9   Atom        0.003869      0.001462      0.000113
    10   Atom        0.002826      0.004132      0.002501
    11   Atom        0.002441      0.000993      0.005858
    12   Atom        0.001616     -0.002988     -0.014885
    13   Atom       -0.005561      0.001982     -0.005123
    14   Atom       -0.399533     -0.153755      0.048087
 --------------------------------------------------------


 ---------------------------------------------------------------------------------
              Anisotropic Spin Dipole Couplings in Principal Axis System
 ---------------------------------------------------------------------------------

       Atom             a.u.   MegaHertz   Gauss  10(-4) cm-1        Axes

              Baa    -0.0232    -3.113    -1.111    -1.038  0.6672 -0.5028  0.5496
     1 C(13)  Bbb    -0.0113    -1.511    -0.539    -0.504 -0.3156  0.4775  0.8200
              Bcc     0.0345     4.624     1.650     1.542  0.6747  0.7205 -0.1599
 
              Baa    -0.0093    -1.247    -0.445    -0.416 -0.0938  0.7805 -0.6181
     2 C(13)  Bbb    -0.0053    -0.707    -0.252    -0.236 -0.3427  0.5576  0.7561
              Bcc     0.0146     1.954     0.697     0.652  0.9347  0.2828  0.2152
 
              Baa    -0.4161   -55.841   -19.925   -18.627  0.2690  0.8547 -0.4440
     3 C(13)  Bbb    -0.3998   -53.651   -19.144   -17.896  0.0036  0.4601  0.8879
              Bcc     0.8159   109.492    39.069    36.523  0.9631 -0.2404  0.1207
 
              Baa    -0.0093    -4.961    -1.770    -1.655  0.9709 -0.2183  0.0983
     4 H(1)   Bbb    -0.0087    -4.626    -1.651    -1.543 -0.1336 -0.1533  0.9791
              Bcc     0.0180     9.587     3.421     3.198  0.1987  0.9638  0.1780
 
              Baa    -0.4741    34.302    12.240    11.442 -0.3839 -0.6455  0.6603
     5 O(17)  Bbb    -0.4235    30.642    10.934    10.221  0.0668  0.6938  0.7171
              Bcc     0.8975   -64.944   -23.174   -21.663  0.9209 -0.3194  0.2232
 
              Baa    -0.0382    -5.130    -1.831    -1.711  0.9590  0.2421 -0.1473
     6 C(13)  Bbb    -0.0345    -4.627    -1.651    -1.543  0.0634  0.3235  0.9441
              Bcc     0.0727     9.757     3.481     3.254 -0.2762  0.9147 -0.2949
 
              Baa    -0.0605   -32.275   -11.517   -10.766  0.1960  0.8657 -0.4605
     7 H(1)   Bbb    -0.0594   -31.678   -11.304   -10.567  0.2143  0.4205  0.8817
              Bcc     0.1199    63.954    22.820    21.333  0.9569 -0.2715 -0.1031
 
              Baa    -0.0053    -2.841    -1.014    -0.948 -0.3244  0.4945  0.8064
     8 H(1)   Bbb    -0.0038    -2.037    -0.727    -0.679  0.0833  0.8641 -0.4964
              Bcc     0.0091     4.878     1.741     1.627  0.9422  0.0938  0.3215
 
              Baa    -0.0035    -1.863    -0.665    -0.621 -0.5409  0.5505  0.6359
     9 H(1)   Bbb    -0.0019    -0.999    -0.356    -0.333  0.2898 -0.5878  0.7553
              Bcc     0.0054     2.862     1.021     0.955  0.7896  0.5928  0.1584
 
              Baa    -0.0036    -1.902    -0.679    -0.635  0.6944 -0.6669 -0.2703
    10 H(1)   Bbb    -0.0031    -1.651    -0.589    -0.551 -0.3158 -0.6199  0.7184
              Bcc     0.0067     3.554     1.268     1.185  0.6466  0.4134  0.6410
 
              Baa    -0.0110    -5.847    -2.086    -1.950 -0.2048 -0.1770  0.9627
    11 H(1)   Bbb    -0.0085    -4.556    -1.626    -1.520  0.9744 -0.1298  0.1834
              Bcc     0.0195    10.403     3.712     3.470  0.0924  0.9756  0.1991
 
              Baa    -0.0114    -6.095    -2.175    -2.033  0.2902  0.6362  0.7149
    12 H(1)   Bbb    -0.0077    -4.095    -1.461    -1.366  0.9494 -0.2853 -0.1316
              Bcc     0.0191    10.190     3.636     3.399  0.1202  0.7169 -0.6868
 
              Baa    -0.0098    -5.230    -1.866    -1.744 -0.0014  0.3328  0.9430
    13 H(1)   Bbb    -0.0012    -0.649    -0.232    -0.217  0.7944  0.5732 -0.2011
              Bcc     0.0110     5.879     2.098     1.961 -0.6074  0.7488 -0.2651
 
              Baa    -0.4757   -24.895    -8.883    -8.304  0.0642 -0.1722  0.9830
    14 Cl(35) Bbb    -0.4746   -24.838    -8.863    -8.285  0.3102  0.9397  0.1443
              Bcc     0.9503    49.734    17.746    16.589  0.9485 -0.2956 -0.1137
 

 ---------------------------------------------------------------------------------

 No NMR shielding tensors so no spin-rotation constants.
 Leave Link  601 at Mon Oct  7 14:31:05 2024, MaxMem=  2684354560 cpu:               1.4 elap:               0.3
 (Enter /gpfs/fs1/soft/bebop/software/custom-built/gaussian/16-c.02/g16/l9999.exe)
 Unable to Open any file for archive entry.
 1\1\GINC-CSED-0007\FOpt\UB2PLYPD3-FC\CC-pVTZ\C4H8Cl1O1(2)\COPAN\07-Oct
 -2024\1\\#P b2plypd3/cc-pvtz # SCF=(xqc) # POpt=() # int=ultrafine\\co
 mment:\\0,2\C\C,1,R1\C,1,R2,2,A2\H,1,R3,2,A3,3,D3,0\O,3,R4,1,A4,2,D4,0
 \C,3,R5,1,A5,5,D5,0\H,3,R6,1,A6,5,D6,0\H,2,R7,1,A7,3,D7,0\H,2,R8,1,A8,
 8,D8,0\H,2,R9,1,A9,8,D9,0\H,6,R10,3,A10,1,D10,0\H,6,R11,3,A11,11,D11,0
 \H,6,R12,3,A12,11,D12,0\X,7,R13,3,A13,6,D13,0\Cl,7,R14,14,A14,3,D14,0\
 \R1=1.49616578\R2=1.44927534\R3=1.08304177\R4=1.36372587\R5=1.48338856
 \R6=1.71776705\R7=1.08707588\R8=1.08917297\R9=1.09011377\R10=1.0883097
 3\R11=1.08732239\R12=1.09338717\R14=1.34855317\A2=123.93235412\A3=116.
 65428434\A4=63.96905461\A5=136.23833049\A6=107.24163291\A7=111.2627884
 1\A8=110.5562307\A9=109.63295313\A10=109.93582007\A11=110.2182576\A12=
 110.81330739\A14=86.4758154\D3=198.23216925\D4=99.33653182\D5=246.9395
 9979\D6=106.56768989\D7=339.67237861\D8=239.13570554\D9=120.24979832\D
 10=149.28040615\D11=119.78761501\D12=240.37791233\D14=176.5883899\R13=
 1.\A13=90.\D13=310.8195\\Version=ES64L-G16RevC.01\State=2-A\HF=-691.99
 19567\MP2=-692.3555519\PUHF=-691.9946304\PMP2-0=-692.3557346\S2=0.7574
 26\S2-1=0.746295\S2A=0.750042\RMSD=9.161e-09\RMSF=8.941e-06\Dipole=0.2
 982211,0.0369692,1.5253991\PG=C01 [X(C4H8Cl1O1)]\\@
 The archive entry for this job was punched.


 I DO NOT DEFINE TIME, SPACE, PLACE, AND MOTION, AS BEING WELL KNOWN TO ALL.
                                            -- NEWTON (1642-1726), PRINCIPIA
 Job cpu time:       0 days 12 hours 37 minutes 11.9 seconds.
 Elapsed time:       0 days  2 hours 39 minutes  0.3 seconds.
 File lengths (MBytes):  RWF=     70 Int=      0 D2E=      0 Chk=     14 Scr=      1
 Normal termination of Gaussian 16 at Mon Oct  7 14:31:05 2024.
