 Entering Gaussian System, Link 0=g16
 Input=run.inp
 Output=run.out
 Initial command:
 /gpfs/fs1/soft/bebop/software/custom-built/gaussian/16-c.02/g16/l1.exe "/scratch/Gau-3813824.inp" -scrdir="/scratch/"
 Default CPUs for threads: 0-35
 Default is to use a total of  36 processors:
                               36 via shared-memory
                                1 via Linda
 Entering Link 1 = /gpfs/fs1/soft/bebop/software/custom-built/gaussian/16-c.02/g16/l1.exe PID=   3813825.
  
 Copyright (c) 1988-2019, Gaussian, Inc.  All Rights Reserved.
  
 This is part of the Gaussian(R) 16 program.  It is based on
 the Gaussian(R) 09 system (copyright 2009, Gaussian, Inc.),
 the Gaussian(R) 03 system (copyright 2003, Gaussian, Inc.),
 the Gaussian(R) 98 system (copyright 1998, Gaussian, Inc.),
 the Gaussian(R) 94 system (copyright 1995, Gaussian, Inc.),
 the Gaussian 92(TM) system (copyright 1992, Gaussian, Inc.),
 the Gaussian 90(TM) system (copyright 1990, Gaussian, Inc.),
 the Gaussian 88(TM) system (copyright 1988, Gaussian, Inc.),
 the Gaussian 86(TM) system (copyright 1986, Carnegie Mellon
 University), and the Gaussian 82(TM) system (copyright 1983,
 Carnegie Mellon University). Gaussian is a federally registered
 trademark of Gaussian, Inc.
  
 This software contains proprietary and confidential information,
 including trade secrets, belonging to Gaussian, Inc.
  
 This software is provided under written license and may be
 used, copied, transmitted, or stored only in accord with that
 written license.
  
 The following legend is applicable only to US Government
 contracts under FAR:
  
                    RESTRICTED RIGHTS LEGEND
  
 Use, reproduction and disclosure by the US Government is
 subject to restrictions as set forth in subparagraphs (a)
 and (c) of the Commercial Computer Software - Restricted
 Rights clause in FAR 52.227-19.
  
 Gaussian, Inc.
 340 Quinnipiac St., Bldg. 40, Wallingford CT 06492
  
  
 ---------------------------------------------------------------
 Warning -- This program may not be used in any manner that
 competes with the business of Gaussian, Inc. or will provide
 assistance to any competitor of Gaussian, Inc.  The licensee
 of this program is prohibited from giving any competitor of
 Gaussian, Inc. access to this program.  By using this program,
 the user acknowledges that Gaussian, Inc. is engaged in the
 business of creating and licensing software in the field of
 computational chemistry and represents and warrants to the
 licensee that it is not a competitor of Gaussian, Inc. and that
 it will not use this program in any manner prohibited above.
 ---------------------------------------------------------------
  

 Cite this work as:
 Gaussian 16, Revision C.01,
 M. J. Frisch, G. W. Trucks, H. B. Schlegel, G. E. Scuseria, 
 M. A. Robb, J. R. Cheeseman, G. Scalmani, V. Barone, 
 G. A. Petersson, H. Nakatsuji, X. Li, M. Caricato, A. V. Marenich, 
 J. Bloino, B. G. Janesko, R. Gomperts, B. Mennucci, H. P. Hratchian, 
 J. V. Ortiz, A. F. Izmaylov, J. L. Sonnenberg, D. Williams-Young, 
 F. Ding, F. Lipparini, F. Egidi, J. Goings, B. Peng, A. Petrone, 
 T. Henderson, D. Ranasinghe, V. G. Zakrzewski, J. Gao, N. Rega, 
 G. Zheng, W. Liang, M. Hada, M. Ehara, K. Toyota, R. Fukuda, 
 J. Hasegawa, M. Ishida, T. Nakajima, Y. Honda, O. Kitao, H. Nakai, 
 T. Vreven, K. Throssell, J. A. Montgomery, Jr., J. E. Peralta, 
 F. Ogliaro, M. J. Bearpark, J. J. Heyd, E. N. Brothers, K. N. Kudin, 
 V. N. Staroverov, T. A. Keith, R. Kobayashi, J. Normand, 
 K. Raghavachari, A. P. Rendell, J. C. Burant, S. S. Iyengar, 
 J. Tomasi, M. Cossi, J. M. Millam, M. Klene, C. Adamo, R. Cammi, 
 J. W. Ochterski, R. L. Martin, K. Morokuma, O. Farkas, 
 J. B. Foresman, and D. J. Fox, Gaussian, Inc., Wallingford CT, 2019.
 
 ******************************************
 Gaussian 16:  ES64L-G16RevC.01  3-Jul-2019
                10-Oct-2024 
 ******************************************
 %mem=20GB
 %NProcShared=6
 Will use up to    6 processors via shared memory.
 ----------------------------------------------------------------------
 #P b2plypd3/cc-pvtz # SCF=(xqc) # Freq=() # IOp(7/33=1) # int=ultrafin
 e
 ----------------------------------------------------------------------
 1/10=4,30=1,38=1/1,3;
 2/12=2,17=6,18=5,40=1/2;
 3/5=16,6=1,11=9,25=1,30=1,71=2,74=-60,75=-5,140=1/1,2,3;
 4//1;
 5/5=2,8=3,13=1,38=5,98=1/2,8;
 8/6=3,8=1,10=1,19=11,30=-1/1;
 9/15=3,16=-3/6;
 11/6=1,8=1,15=11,17=12,24=-1,27=1,28=-2,29=300,32=6,42=3/1,2,10;
 10/6=2,21=1/2;
 8/6=4,8=1,10=1,19=11,30=-1/11,4;
 10/5=1,20=4/2;
 11/12=2,14=11,16=1,17=2,28=-2,42=3,76=2/2,10,12;
 6/7=2,8=2,9=2,10=2/1;
 7/8=1,10=1,12=2,25=1,33=1,44=2/1,2,3,16;
 1/10=4,30=1/3;
 99//99;
 Leave Link    1 at Thu Oct 10 21:53:35 2024, MaxMem=  2684354560 cpu:               0.9 elap:               0.1
 (Enter /gpfs/fs1/soft/bebop/software/custom-built/gaussian/16-c.02/g16/l101.exe)
 --------
 comment:
 --------
 Symbolic Z-matrix:
 Charge =  0 Multiplicity = 2
 C                     0.83317  -0.74458  -0.2993 
 C                     1.74909  -1.30489   0.74677 
 C                     0.38136   0.65262  -0.33626 
 H                     0.1858   -1.47456  -0.77449 
 O                     1.39237   0.19445  -1.23792 
 C                     0.74393   1.70365   0.67149 
 H                    -0.56434   0.85202  -0.85212 
 H                     1.16427  -1.75991   1.54625 
 H                     2.3826   -2.07659   0.31154 
 H                     2.39193  -0.54068   1.17295 
 H                     1.68837   1.48198   1.15922 
 H                    -0.03776   1.77378   1.42722 
 H                     0.8316    2.67275   0.18258 
 Cl                   -2.43686  -0.25442   0.06082 
 
 ITRead=  0  0  0  0  0  0  0  0  0  0  0  0  0  0
 MicOpt= -1 -1 -1 -1 -1 -1 -1 -1 -1 -1 -1 -1 -1 -1
 NAtoms=     14 NQM=       14 NQMF=       0 NMMI=      0 NMMIF=      0
                NMic=       0 NMicF=      0.
                    Isotopes and Nuclear Properties:
 (Nuclear quadrupole moments (NQMom) in fm**2, nuclear magnetic moments (NMagM)
  in nuclear magnetons)

  Atom         1           2           3           4           5           6           7           8           9          10
 IAtWgt=          12          12          12           1          16          12           1           1           1           1
 AtmWgt=  12.0000000  12.0000000  12.0000000   1.0078250  15.9949146  12.0000000   1.0078250   1.0078250   1.0078250   1.0078250
 NucSpn=           0           0           0           1           0           0           1           1           1           1
 AtZEff=  -0.0000000  -0.0000000  -0.0000000  -0.0000000  -0.0000000  -0.0000000  -0.0000000  -0.0000000  -0.0000000  -0.0000000
 NQMom=    0.0000000   0.0000000   0.0000000   0.0000000   0.0000000   0.0000000   0.0000000   0.0000000   0.0000000   0.0000000
 NMagM=    0.0000000   0.0000000   0.0000000   2.7928460   0.0000000   0.0000000   2.7928460   2.7928460   2.7928460   2.7928460
 AtZNuc=   6.0000000   6.0000000   6.0000000   1.0000000   8.0000000   6.0000000   1.0000000   1.0000000   1.0000000   1.0000000

  Atom        11          12          13          14
 IAtWgt=           1           1           1          35
 AtmWgt=   1.0078250   1.0078250   1.0078250  34.9688527
 NucSpn=           1           1           1           3
 AtZEff=  -0.0000000  -0.0000000  -0.0000000  -0.0000000
 NQMom=    0.0000000   0.0000000   0.0000000  -8.1650000
 NMagM=    2.7928460   2.7928460   2.7928460   0.8218740
 AtZNuc=   1.0000000   1.0000000   1.0000000  17.0000000
 Leave Link  101 at Thu Oct 10 21:53:36 2024, MaxMem=  2684354560 cpu:               0.7 elap:               0.2
 (Enter /gpfs/fs1/soft/bebop/software/custom-built/gaussian/16-c.02/g16/l103.exe)

 GradGradGradGradGradGradGradGradGradGradGradGradGradGradGradGradGradGrad
 Berny optimization.
 Initialization pass.
 Trust Radius=3.00D-01 FncErr=1.00D-07 GrdErr=1.00D-07 EigMax=2.50D+02 EigMin=1.00D-04
 Number of steps in this run=      2 maximum allowed number of steps=      2.
 GradGradGradGradGradGradGradGradGradGradGradGradGradGradGradGradGradGrad

 Leave Link  103 at Thu Oct 10 21:53:36 2024, MaxMem=  2684354560 cpu:               0.1 elap:               0.0
 (Enter /gpfs/fs1/soft/bebop/software/custom-built/gaussian/16-c.02/g16/l202.exe)
                          Input orientation:                          
 ---------------------------------------------------------------------
 Center     Atomic      Atomic             Coordinates (Angstroms)
 Number     Number       Type             X           Y           Z
 ---------------------------------------------------------------------
      1          6           0        0.833168   -0.744575   -0.299303
      2          6           0        1.749092   -1.304894    0.746766
      3          6           0        0.381358    0.652619   -0.336261
      4          1           0        0.185796   -1.474558   -0.774485
      5          8           0        1.392370    0.194447   -1.237915
      6          6           0        0.743926    1.703651    0.671490
      7          1           0       -0.564339    0.852016   -0.852117
      8          1           0        1.164271   -1.759912    1.546252
      9          1           0        2.382601   -2.076591    0.311537
     10          1           0        2.391933   -0.540684    1.172946
     11          1           0        1.688369    1.481977    1.159224
     12          1           0       -0.037761    1.773781    1.427223
     13          1           0        0.831602    2.672749    0.182576
     14         17           0       -2.436864   -0.254421    0.060824
 ---------------------------------------------------------------------
                    Distance matrix (angstroms):
                    1          2          3          4          5
     1  C    0.000000
     2  C    1.499045   0.000000
     3  C    1.468894   2.622118   0.000000
     4  H    1.085248   2.187895   2.180634   0.000000
     5  O    1.440646   2.512814   1.430051   2.110963   0.000000
     6  C    2.635188   3.172912   1.500562   3.536010   2.518731
     7  H    2.192654   3.544101   1.095541   2.445746   2.099987
     8  H    2.132279   1.090062   3.158657   2.534691   3.409272
     9  H    2.132636   1.089162   3.445751   2.523458   2.922152
    10  H    2.153796   1.085767   2.782820   3.087337   2.711419
    11  H    2.795747   2.817882   2.152345   3.839017   2.737083
    12  H    3.175142   3.624101   2.131324   3.930547   3.412115
    13  H    3.451132   4.120891   2.133738   4.305019   2.911054
    14  Cl   3.326117   4.369924   2.987101   3.010784   4.068321
                    6          7          8          9         10
     6  C    0.000000
     7  H    2.181334   0.000000
     8  H    3.596966   3.944925   0.000000
     9  H    4.135825   4.314543   1.763274   0.000000
    10  H    2.829209   3.844481   1.770036   1.761001   0.000000
    11  H    1.085816   3.084969   3.306707   3.723431   2.141576
    12  H    1.089534   2.514424   3.734439   4.682763   3.365237
    13  H    1.088979   2.516805   4.649598   4.997845   3.706969
    14  Cl   3.784757   2.358816   4.176263   5.158527   4.963471
                   11         12         13         14
    11  H    0.000000
    12  H    1.771016   0.000000
    13  H    1.762336   1.764393   0.000000
    14  Cl   4.608591   3.425835   4.389307   0.000000
 Stoichiometry    C4H8ClO(2)
 Framework group  C1[X(C4H8ClO)]
 Deg. of freedom    36
 Full point group                 C1      NOp   1
 Largest Abelian subgroup         C1      NOp   1
 Largest concise Abelian subgroup C1      NOp   1
                         Standard orientation:                         
 ---------------------------------------------------------------------
 Center     Atomic      Atomic             Coordinates (Angstroms)
 Number     Number       Type             X           Y           Z
 ---------------------------------------------------------------------
      1          6           0       -0.833168   -0.744575    0.299303
      2          6           0       -1.749092   -1.304894   -0.746766
      3          6           0       -0.381358    0.652619    0.336261
      4          1           0       -0.185796   -1.474558    0.774485
      5          8           0       -1.392370    0.194447    1.237915
      6          6           0       -0.743926    1.703651   -0.671490
      7          1           0        0.564339    0.852016    0.852117
      8          1           0       -1.164271   -1.759912   -1.546252
      9          1           0       -2.382601   -2.076591   -0.311537
     10          1           0       -2.391933   -0.540684   -1.172946
     11          1           0       -1.688369    1.481977   -1.159224
     12          1           0        0.037761    1.773781   -1.427223
     13          1           0       -0.831602    2.672749   -0.182576
     14         17           0        2.436864   -0.254421   -0.060824
 ---------------------------------------------------------------------
 Rotational constants (GHZ):           3.5977205           1.4209981           1.2593350
 Leave Link  202 at Thu Oct 10 21:53:36 2024, MaxMem=  2684354560 cpu:               0.0 elap:               0.0
 (Enter /gpfs/fs1/soft/bebop/software/custom-built/gaussian/16-c.02/g16/l301.exe)
 Standard basis: CC-pVTZ (5D, 7F)
 Ernie: Thresh=  0.10000D-02 Tol=  0.10000D-05 Strict=F.
 Ernie:  28 primitive shells out of 254 were deleted.
 There are   334 symmetry adapted cartesian basis functions of A   symmetry.
 There are   296 symmetry adapted basis functions of A   symmetry.
   296 basis functions,   490 primitive gaussians,   334 cartesian basis functions
    29 alpha electrons       28 beta electrons
       nuclear repulsion energy       281.5322548814 Hartrees.
 IExCor=  419 DFT=T Ex+Corr=B2PLYPD3 ExCW=0 ScaHFX=  0.530000
 ScaDFX=  0.470000  0.470000  0.730000  0.730000 ScalE2=  0.270000  0.270000
 IRadAn=      5 IRanWt=     -1 IRanGd=            0 ICorTp=0 IEmpDi=141
 NAtoms=   14 NActive=   14 NUniq=   14 SFac= 1.00D+00 NAtFMM=   60 NAOKFM=F Big=F
 Integral buffers will be    131072 words long.
 Regular integral format.
 Two-electron integral symmetry is turned on.
 R6Disp:  Grimme-D3(BJ) Dispersion energy=       -0.0082399277 Hartrees.
 Nuclear repulsion after empirical dispersion term =      281.5240149537 Hartrees.
 Leave Link  301 at Thu Oct 10 21:53:36 2024, MaxMem=  2684354560 cpu:               0.3 elap:               0.1
 (Enter /gpfs/fs1/soft/bebop/software/custom-built/gaussian/16-c.02/g16/l302.exe)
 NPDir=0 NMtPBC=     1 NCelOv=     1 NCel=       1 NClECP=     1 NCelD=      1
         NCelK=      1 NCelE2=     1 NClLst=     1 CellRange=     0.0.
 One-electron integrals computed using PRISM.
 One-electron integral symmetry used in STVInt
 NBasis=   296 RedAO= T EigKep=  2.66D-04  NBF=   296
 NBsUse=   296 1.00D-06 EigRej= -1.00D+00 NBFU=   296
 Precomputing XC quadrature grid using
 IXCGrd= 4 IRadAn=           5 IRanWt=          -1 IRanGd=           0 AccXCQ= 0.00D+00.
 Generated NRdTot=       0 NPtTot=           0 NUsed=           0 NTot=          32
 NSgBfM=   334   334   334   334   334 MxSgAt=    14 MxSgA2=    14.
 Leave Link  302 at Thu Oct 10 21:53:36 2024, MaxMem=  2684354560 cpu:               1.2 elap:               0.2
 (Enter /gpfs/fs1/soft/bebop/software/custom-built/gaussian/16-c.02/g16/l303.exe)
 DipDrv:  MaxL=1.
 Leave Link  303 at Thu Oct 10 21:53:36 2024, MaxMem=  2684354560 cpu:               0.2 elap:               0.1
 (Enter /gpfs/fs1/soft/bebop/software/custom-built/gaussian/16-c.02/g16/l401.exe)
 ExpMin= 1.03D-01 ExpMax= 4.56D+05 ExpMxC= 1.44D+03 IAcc=3 IRadAn=         5 AccDes= 0.00D+00
 Harris functional with IExCor=  419 and IRadAn=       5 diagonalized for initial guess.
 HarFok:  IExCor=  419 AccDes= 0.00D+00 IRadAn=         5 IDoV= 1 UseB2=F ITyADJ=14
 ICtDFT=  3500011 ScaDFX=  1.000000  1.000000  1.000000  1.000000
 FoFCou: FMM=F IPFlag=           0 FMFlag=      100000 FMFlg1=           0
         NFxFlg=           0 DoJE=T BraDBF=F KetDBF=T FulRan=T
         wScrn=  0.000000 ICntrl=       500 IOpCl=  0 I1Cent=   200000004 NGrid=           0
         NMat0=    1 NMatS0=      1 NMatT0=    0 NMatD0=    1 NMtDS0=    0 NMtDT0=    0
 Petite list used in FoFCou.
 Harris En= -692.666367075271    
 JPrj=0 DoOrth=F DoCkMO=F.
 Initial guess <Sx>= 0.0000 <Sy>= 0.0000 <Sz>= 0.5000 <S**2>= 0.7500 S= 0.5000
 Leave Link  401 at Thu Oct 10 21:53:37 2024, MaxMem=  2684354560 cpu:               5.6 elap:               1.0
 (Enter /gpfs/fs1/soft/bebop/software/custom-built/gaussian/16-c.02/g16/l502.exe)
 Keep R1 and R2 ints in memory in canonical form, NReq=1950973320.
 FoFCou: FMM=F IPFlag=           0 FMFlag=           0 FMFlg1=           0
         NFxFlg=           0 DoJE=F BraDBF=F KetDBF=F FulRan=T
         wScrn=  0.000000 ICntrl=       600 IOpCl=  0 I1Cent=           0 NGrid=           0
         NMat0=    1 NMatS0=  43956 NMatT0=    0 NMatD0=    1 NMtDS0=    0 NMtDT0=    0
 Symmetry not used in FoFCou.
 Two-electron integral symmetry not used.
 UHF open shell SCF:
 Using DIIS extrapolation, IDIIS=  1040.
 NGot=  2684354560 LenX=   751952220 LenY=   751840223
 Requested convergence on RMS density matrix=1.00D-08 within  32 cycles.
 Requested convergence on MAX density matrix=1.00D-06.
 Requested convergence on             energy=1.00D-06.
 No special actions if energy rises.
 Integral accuracy reduced to 1.0D-05 until final iterations.

 Cycle   1  Pass 0  IDiag  1:
 E= -691.776028118686    
 DIIS: error= 3.13D-02 at cycle   1 NSaved=   1.
 NSaved= 1 IEnMin= 1 EnMin= -691.776028118686     IErMin= 1 ErrMin= 3.13D-02
 ErrMax= 3.13D-02  0.00D+00 EMaxC= 1.00D-01 BMatC= 1.18D+00 BMatP= 1.18D+00
 IDIUse=3 WtCom= 6.87D-01 WtEn= 3.13D-01
 Coeff-Com:  0.100D+01
 Coeff-En:   0.100D+01
 Coeff:      0.100D+01
 Gap=     0.747 Goal=   None    Shift=    0.000
 Gap=     0.238 Goal=   None    Shift=    0.000
 GapD=    0.238 DampG=1.000 DampE=0.500 DampFc=0.5000 IDamp=-1.
 Damping current iteration by 5.00D-01
 RMSDP=1.91D-03 MaxDP=6.43D-02              OVMax= 3.11D-01

 Cycle   2  Pass 0  IDiag  1:
 E= -691.878708368606     Delta-E=       -0.102680249920 Rises=F Damp=T
 DIIS: error= 9.99D-03 at cycle   2 NSaved=   2.
 NSaved= 2 IEnMin= 2 EnMin= -691.878708368606     IErMin= 2 ErrMin= 9.99D-03
 ErrMax= 9.99D-03  0.00D+00 EMaxC= 1.00D-01 BMatC= 1.24D-01 BMatP= 1.18D+00
 IDIUse=3 WtCom= 9.00D-01 WtEn= 9.99D-02
 Coeff-Com: -0.157D+00 0.116D+01
 Coeff-En:   0.000D+00 0.100D+01
 Coeff:     -0.141D+00 0.114D+01
 Gap=     0.490 Goal=   None    Shift=    0.000
 Gap=     0.187 Goal=   None    Shift=    0.000
 RMSDP=5.85D-04 MaxDP=2.61D-02 DE=-1.03D-01 OVMax= 3.59D-01

 Cycle   3  Pass 0  IDiag  1:
 E= -691.978859993617     Delta-E=       -0.100151625011 Rises=F Damp=F
 DIIS: error= 5.94D-03 at cycle   3 NSaved=   3.
 NSaved= 3 IEnMin= 3 EnMin= -691.978859993617     IErMin= 3 ErrMin= 5.94D-03
 ErrMax= 5.94D-03  0.00D+00 EMaxC= 1.00D-01 BMatC= 7.29D-02 BMatP= 1.24D-01
 IDIUse=3 WtCom= 9.41D-01 WtEn= 5.94D-02
 Coeff-Com: -0.163D+00 0.545D+00 0.617D+00
 Coeff-En:   0.000D+00 0.000D+00 0.100D+01
 Coeff:     -0.153D+00 0.513D+00 0.640D+00
 Gap=     0.469 Goal=   None    Shift=    0.000
 Gap=     0.218 Goal=   None    Shift=    0.000
 RMSDP=3.45D-04 MaxDP=1.40D-02 DE=-1.00D-01 OVMax= 4.98D-02

 Cycle   4  Pass 0  IDiag  1:
 E= -691.991391442206     Delta-E=       -0.012531448590 Rises=F Damp=F
 DIIS: error= 2.55D-03 at cycle   4 NSaved=   4.
 NSaved= 4 IEnMin= 4 EnMin= -691.991391442206     IErMin= 4 ErrMin= 2.55D-03
 ErrMax= 2.55D-03  0.00D+00 EMaxC= 1.00D-01 BMatC= 1.10D-02 BMatP= 7.29D-02
 IDIUse=3 WtCom= 9.74D-01 WtEn= 2.55D-02
 Coeff-Com: -0.725D-01 0.146D+00 0.310D+00 0.616D+00
 Coeff-En:   0.000D+00 0.000D+00 0.000D+00 0.100D+01
 Coeff:     -0.706D-01 0.142D+00 0.302D+00 0.626D+00
 Gap=     0.430 Goal=   None    Shift=    0.000
 Gap=     0.182 Goal=   None    Shift=    0.000
 RMSDP=1.17D-04 MaxDP=5.01D-03 DE=-1.25D-02 OVMax= 3.05D-02

 Cycle   5  Pass 0  IDiag  1:
 E= -691.993784492070     Delta-E=       -0.002393049864 Rises=F Damp=F
 DIIS: error= 6.69D-04 at cycle   5 NSaved=   5.
 NSaved= 5 IEnMin= 5 EnMin= -691.993784492070     IErMin= 5 ErrMin= 6.69D-04
 ErrMax= 6.69D-04  0.00D+00 EMaxC= 1.00D-01 BMatC= 7.80D-04 BMatP= 1.10D-02
 IDIUse=3 WtCom= 9.93D-01 WtEn= 6.69D-03
 Coeff-Com: -0.143D-01 0.196D-01 0.174D-01 0.190D+00 0.787D+00
 Coeff-En:   0.000D+00 0.000D+00 0.000D+00 0.000D+00 0.100D+01
 Coeff:     -0.142D-01 0.195D-01 0.173D-01 0.189D+00 0.789D+00
 Gap=     0.427 Goal=   None    Shift=    0.000
 Gap=     0.186 Goal=   None    Shift=    0.000
 RMSDP=4.69D-05 MaxDP=2.48D-03 DE=-2.39D-03 OVMax= 1.55D-02

 Cycle   6  Pass 0  IDiag  1:
 E= -691.994065930142     Delta-E=       -0.000281438072 Rises=F Damp=F
 DIIS: error= 3.14D-04 at cycle   6 NSaved=   6.
 NSaved= 6 IEnMin= 6 EnMin= -691.994065930142     IErMin= 6 ErrMin= 3.14D-04
 ErrMax= 3.14D-04  0.00D+00 EMaxC= 1.00D-01 BMatC= 1.18D-04 BMatP= 7.80D-04
 IDIUse=3 WtCom= 9.97D-01 WtEn= 3.14D-03
 Coeff-Com:  0.816D-02-0.162D-01-0.644D-01-0.680D-01 0.145D+00 0.995D+00
 Coeff-En:   0.000D+00 0.000D+00 0.000D+00 0.000D+00 0.000D+00 0.100D+01
 Coeff:      0.813D-02-0.162D-01-0.642D-01-0.678D-01 0.145D+00 0.995D+00
 Gap=     0.425 Goal=   None    Shift=    0.000
 Gap=     0.188 Goal=   None    Shift=    0.000
 RMSDP=3.96D-05 MaxDP=1.98D-03 DE=-2.81D-04 OVMax= 1.27D-02

 Cycle   7  Pass 0  IDiag  1:
 E= -691.994166393750     Delta-E=       -0.000100463608 Rises=F Damp=F
 DIIS: error= 1.62D-04 at cycle   7 NSaved=   7.
 NSaved= 7 IEnMin= 7 EnMin= -691.994166393750     IErMin= 7 ErrMin= 1.62D-04
 ErrMax= 1.62D-04  0.00D+00 EMaxC= 1.00D-01 BMatC= 1.84D-05 BMatP= 1.18D-04
 IDIUse=3 WtCom= 9.98D-01 WtEn= 1.62D-03
 Coeff-Com:  0.229D-02-0.248D-02-0.152D-01-0.405D-01-0.113D+00 0.176D+00
 Coeff-Com:  0.992D+00
 Coeff-En:   0.000D+00 0.000D+00 0.000D+00 0.000D+00 0.000D+00 0.000D+00
 Coeff-En:   0.100D+01
 Coeff:      0.228D-02-0.248D-02-0.151D-01-0.405D-01-0.113D+00 0.176D+00
 Coeff:      0.992D+00
 Gap=     0.425 Goal=   None    Shift=    0.000
 Gap=     0.189 Goal=   None    Shift=    0.000
 RMSDP=1.89D-05 MaxDP=1.02D-03 DE=-1.00D-04 OVMax= 6.44D-03

 Cycle   8  Pass 0  IDiag  1:
 E= -691.994187202793     Delta-E=       -0.000020809043 Rises=F Damp=F
 DIIS: error= 6.66D-05 at cycle   8 NSaved=   8.
 NSaved= 8 IEnMin= 8 EnMin= -691.994187202793     IErMin= 8 ErrMin= 6.66D-05
 ErrMax= 6.66D-05  0.00D+00 EMaxC= 1.00D-01 BMatC= 3.49D-06 BMatP= 1.84D-05
 IDIUse=1 WtCom= 1.00D+00 WtEn= 0.00D+00
 Coeff-Com: -0.238D-02 0.509D-02 0.119D-01 0.156D-01-0.181D-01-0.205D+00
 Coeff-Com:  0.633D-01 0.113D+01
 Coeff:     -0.238D-02 0.509D-02 0.119D-01 0.156D-01-0.181D-01-0.205D+00
 Coeff:      0.633D-01 0.113D+01
 Gap=     0.424 Goal=   None    Shift=    0.000
 Gap=     0.189 Goal=   None    Shift=    0.000
 RMSDP=8.56D-06 MaxDP=4.63D-04 DE=-2.08D-05 OVMax= 2.53D-03

 Initial convergence to 1.0D-05 achieved.  Increase integral accuracy.
 Cycle   9  Pass 1  IDiag  1:
 E= -691.994194066808     Delta-E=       -0.000006864016 Rises=F Damp=F
 DIIS: error= 5.60D-05 at cycle   1 NSaved=   1.
 NSaved= 1 IEnMin= 1 EnMin= -691.994194066808     IErMin= 1 ErrMin= 5.60D-05
 ErrMax= 5.60D-05  0.00D+00 EMaxC= 1.00D-01 BMatC= 6.98D-07 BMatP= 6.98D-07
 IDIUse=1 WtCom= 1.00D+00 WtEn= 0.00D+00
 Coeff-Com:  0.100D+01
 Coeff:      0.100D+01
 Gap=     0.424 Goal=   None    Shift=    0.000
 Gap=     0.189 Goal=   None    Shift=    0.000
 RMSDP=8.56D-06 MaxDP=4.63D-04 DE=-6.86D-06 OVMax= 8.34D-04

 Cycle  10  Pass 1  IDiag  1:
 E= -691.994194874449     Delta-E=       -0.000000807641 Rises=F Damp=F
 DIIS: error= 5.46D-05 at cycle   2 NSaved=   2.
 NSaved= 2 IEnMin= 2 EnMin= -691.994194874449     IErMin= 2 ErrMin= 5.46D-05
 ErrMax= 5.46D-05  0.00D+00 EMaxC= 1.00D-01 BMatC= 4.69D-07 BMatP= 6.98D-07
 IDIUse=1 WtCom= 1.00D+00 WtEn= 0.00D+00
 Coeff-Com:  0.356D+00 0.644D+00
 Coeff:      0.356D+00 0.644D+00
 Gap=     0.424 Goal=   None    Shift=    0.000
 Gap=     0.189 Goal=   None    Shift=    0.000
 RMSDP=1.55D-06 MaxDP=1.10D-04 DE=-8.08D-07 OVMax= 5.16D-04

 Cycle  11  Pass 1  IDiag  1:
 E= -691.994195308342     Delta-E=       -0.000000433893 Rises=F Damp=F
 DIIS: error= 5.30D-05 at cycle   3 NSaved=   3.
 NSaved= 3 IEnMin= 3 EnMin= -691.994195308342     IErMin= 3 ErrMin= 5.30D-05
 ErrMax= 5.30D-05  0.00D+00 EMaxC= 1.00D-01 BMatC= 2.86D-07 BMatP= 4.69D-07
 IDIUse=1 WtCom= 1.00D+00 WtEn= 0.00D+00
 Coeff-Com: -0.395D+00 0.201D+00 0.119D+01
 Coeff:     -0.395D+00 0.201D+00 0.119D+01
 Gap=     0.424 Goal=   None    Shift=    0.000
 Gap=     0.189 Goal=   None    Shift=    0.000
 RMSDP=3.22D-06 MaxDP=2.73D-04 DE=-4.34D-07 OVMax= 1.21D-03

 Cycle  12  Pass 1  IDiag  1:
 E= -691.994196145045     Delta-E=       -0.000000836702 Rises=F Damp=F
 DIIS: error= 5.05D-05 at cycle   4 NSaved=   4.
 NSaved= 4 IEnMin= 4 EnMin= -691.994196145045     IErMin= 4 ErrMin= 5.05D-05
 ErrMax= 5.05D-05  0.00D+00 EMaxC= 1.00D-01 BMatC= 1.96D-07 BMatP= 2.86D-07
 IDIUse=1 WtCom= 1.00D+00 WtEn= 0.00D+00
 Coeff-Com: -0.316D+00-0.727D-01 0.519D+00 0.870D+00
 Coeff:     -0.316D+00-0.727D-01 0.519D+00 0.870D+00
 Gap=     0.424 Goal=   None    Shift=    0.000
 Gap=     0.189 Goal=   None    Shift=    0.000
 RMSDP=2.72D-06 MaxDP=2.44D-04 DE=-8.37D-07 OVMax= 1.06D-03

 Cycle  13  Pass 1  IDiag  1:
 E= -691.994196795860     Delta-E=       -0.000000650815 Rises=F Damp=F
 DIIS: error= 4.79D-05 at cycle   5 NSaved=   5.
 NSaved= 5 IEnMin= 5 EnMin= -691.994196795860     IErMin= 5 ErrMin= 4.79D-05
 ErrMax= 4.79D-05  0.00D+00 EMaxC= 1.00D-01 BMatC= 1.60D-07 BMatP= 1.96D-07
 IDIUse=1 WtCom= 1.00D+00 WtEn= 0.00D+00
 Coeff-Com:  0.234D+00-0.570D-01-0.696D+00-0.220D+00 0.174D+01
 Coeff:      0.234D+00-0.570D-01-0.696D+00-0.220D+00 0.174D+01
 Gap=     0.424 Goal=   None    Shift=    0.000
 Gap=     0.189 Goal=   None    Shift=    0.000
 RMSDP=4.57D-06 MaxDP=4.28D-04 DE=-6.51D-07 OVMax= 1.82D-03

 Cycle  14  Pass 1  IDiag  1:
 E= -691.994197815750     Delta-E=       -0.000001019890 Rises=F Damp=F
 DIIS: error= 4.37D-05 at cycle   6 NSaved=   6.
 NSaved= 6 IEnMin= 6 EnMin= -691.994197815750     IErMin= 6 ErrMin= 4.37D-05
 ErrMax= 4.37D-05  0.00D+00 EMaxC= 1.00D-01 BMatC= 1.38D-07 BMatP= 1.60D-07
 IDIUse=1 WtCom= 1.00D+00 WtEn= 0.00D+00
 Coeff-Com:  0.609D+00 0.929D-01-0.956D+00-0.173D+01 0.440D+00 0.255D+01
 Coeff:      0.609D+00 0.929D-01-0.956D+00-0.173D+01 0.440D+00 0.255D+01
 Gap=     0.424 Goal=   None    Shift=    0.000
 Gap=     0.189 Goal=   None    Shift=    0.000
 RMSDP=1.22D-05 MaxDP=1.16D-03 DE=-1.02D-06 OVMax= 4.84D-03

 Cycle  15  Pass 1  IDiag  1:
 E= -691.994200100875     Delta-E=       -0.000002285125 Rises=F Damp=F
 DIIS: error= 3.27D-05 at cycle   7 NSaved=   7.
 NSaved= 7 IEnMin= 7 EnMin= -691.994200100875     IErMin= 7 ErrMin= 3.27D-05
 ErrMax= 3.27D-05  0.00D+00 EMaxC= 1.00D-01 BMatC= 8.08D-08 BMatP= 1.38D-07
 IDIUse=1 WtCom= 1.00D+00 WtEn= 0.00D+00
 Coeff-Com: -0.881D-01 0.510D-01 0.678D+00-0.222D+00-0.236D+01 0.448D+00
 Coeff-Com:  0.249D+01
 Coeff:     -0.881D-01 0.510D-01 0.678D+00-0.222D+00-0.236D+01 0.448D+00
 Coeff:      0.249D+01
 Gap=     0.424 Goal=   None    Shift=    0.000
 Gap=     0.189 Goal=   None    Shift=    0.000
 RMSDP=2.47D-05 MaxDP=2.41D-03 DE=-2.29D-06 OVMax= 9.60D-03

 Cycle  16  Pass 1  IDiag  1:
 E= -691.994202724229     Delta-E=       -0.000002623354 Rises=F Damp=F
 DIIS: error= 1.02D-05 at cycle   8 NSaved=   8.
 NSaved= 8 IEnMin= 8 EnMin= -691.994202724229     IErMin= 8 ErrMin= 1.02D-05
 ErrMax= 1.02D-05  0.00D+00 EMaxC= 1.00D-01 BMatC= 1.90D-08 BMatP= 8.08D-08
 IDIUse=1 WtCom= 1.00D+00 WtEn= 0.00D+00
 Coeff-Com: -0.235D+00-0.136D-01 0.491D+00 0.572D+00-0.684D+00-0.757D+00
 Coeff-Com:  0.543D+00 0.108D+01
 Coeff:     -0.235D+00-0.136D-01 0.491D+00 0.572D+00-0.684D+00-0.757D+00
 Coeff:      0.543D+00 0.108D+01
 Gap=     0.424 Goal=   None    Shift=    0.000
 Gap=     0.189 Goal=   None    Shift=    0.000
 RMSDP=7.22D-06 MaxDP=7.18D-04 DE=-2.62D-06 OVMax= 2.82D-03

 Cycle  17  Pass 1  IDiag  1:
 E= -691.994202994302     Delta-E=       -0.000000270073 Rises=F Damp=F
 DIIS: error= 4.04D-06 at cycle   9 NSaved=   9.
 NSaved= 9 IEnMin= 9 EnMin= -691.994202994302     IErMin= 9 ErrMin= 4.04D-06
 ErrMax= 4.04D-06  0.00D+00 EMaxC= 1.00D-01 BMatC= 4.71D-09 BMatP= 1.90D-08
 IDIUse=1 WtCom= 1.00D+00 WtEn= 0.00D+00
 Coeff-Com:  0.292D-01-0.204D-01-0.226D+00 0.754D-01 0.770D+00-0.170D+00
 Coeff-Com: -0.797D+00-0.569D-01 0.140D+01
 Coeff:      0.292D-01-0.204D-01-0.226D+00 0.754D-01 0.770D+00-0.170D+00
 Coeff:     -0.797D+00-0.569D-01 0.140D+01
 Gap=     0.424 Goal=   None    Shift=    0.000
 Gap=     0.189 Goal=   None    Shift=    0.000
 RMSDP=3.78D-06 MaxDP=3.79D-04 DE=-2.70D-07 OVMax= 1.50D-03

 Cycle  18  Pass 1  IDiag  1:
 E= -691.994203044851     Delta-E=       -0.000000050549 Rises=F Damp=F
 DIIS: error= 1.04D-06 at cycle  10 NSaved=  10.
 NSaved=10 IEnMin=10 EnMin= -691.994203044851     IErMin=10 ErrMin= 1.04D-06
 ErrMax= 1.04D-06  0.00D+00 EMaxC= 1.00D-01 BMatC= 9.01D-10 BMatP= 4.71D-09
 IDIUse=1 WtCom= 1.00D+00 WtEn= 0.00D+00
 Coeff-Com:  0.272D-01-0.511D-02-0.712D-01-0.503D-01 0.172D+00 0.410D-01
 Coeff-Com: -0.162D+00-0.195D+00 0.434D+00 0.810D+00
 Coeff:      0.272D-01-0.511D-02-0.712D-01-0.503D-01 0.172D+00 0.410D-01
 Coeff:     -0.162D+00-0.195D+00 0.434D+00 0.810D+00
 Gap=     0.424 Goal=   None    Shift=    0.000
 Gap=     0.189 Goal=   None    Shift=    0.000
 RMSDP=8.51D-07 MaxDP=8.44D-05 DE=-5.05D-08 OVMax= 3.41D-04

 Cycle  19  Pass 1  IDiag  1:
 E= -691.994203047530     Delta-E=       -0.000000002679 Rises=F Damp=F
 DIIS: error= 7.95D-07 at cycle  11 NSaved=  11.
 NSaved=11 IEnMin=11 EnMin= -691.994203047530     IErMin=11 ErrMin= 7.95D-07
 ErrMax= 7.95D-07  0.00D+00 EMaxC= 1.00D-01 BMatC= 1.58D-10 BMatP= 9.01D-10
 IDIUse=1 WtCom= 1.00D+00 WtEn= 0.00D+00
 Coeff-Com: -0.276D-02 0.167D-02 0.121D-01 0.107D-03-0.418D-01 0.465D-02
 Coeff-Com:  0.435D-01 0.285D-01-0.131D+00-0.872D-01 0.117D+01
 Coeff:     -0.276D-02 0.167D-02 0.121D-01 0.107D-03-0.418D-01 0.465D-02
 Coeff:      0.435D-01 0.285D-01-0.131D+00-0.872D-01 0.117D+01
 Gap=     0.424 Goal=   None    Shift=    0.000
 Gap=     0.189 Goal=   None    Shift=    0.000
 RMSDP=1.23D-07 MaxDP=1.25D-05 DE=-2.68D-09 OVMax= 5.64D-05

 Cycle  20  Pass 1  IDiag  1:
 E= -691.994203047909     Delta-E=       -0.000000000379 Rises=F Damp=F
 DIIS: error= 7.39D-07 at cycle  12 NSaved=  12.
 NSaved=12 IEnMin=12 EnMin= -691.994203047909     IErMin=12 ErrMin= 7.39D-07
 ErrMax= 7.39D-07  0.00D+00 EMaxC= 1.00D-01 BMatC= 9.69D-11 BMatP= 1.58D-10
 IDIUse=1 WtCom= 1.00D+00 WtEn= 0.00D+00
 Coeff-Com: -0.798D-02 0.228D-02 0.174D-01 0.147D-01-0.394D-01-0.867D-02
 Coeff-Com:  0.323D-01 0.502D-01-0.127D+00-0.208D+00 0.256D+00 0.102D+01
 Coeff:     -0.798D-02 0.228D-02 0.174D-01 0.147D-01-0.394D-01-0.867D-02
 Coeff:      0.323D-01 0.502D-01-0.127D+00-0.208D+00 0.256D+00 0.102D+01
 Gap=     0.424 Goal=   None    Shift=    0.000
 Gap=     0.189 Goal=   None    Shift=    0.000
 RMSDP=6.14D-08 MaxDP=6.71D-06 DE=-3.79D-10 OVMax= 2.45D-05

 Cycle  21  Pass 1  IDiag  1:
 E= -691.994203048194     Delta-E=       -0.000000000285 Rises=F Damp=F
 DIIS: error= 7.00D-07 at cycle  13 NSaved=  13.
 NSaved=13 IEnMin=13 EnMin= -691.994203048194     IErMin=13 ErrMin= 7.00D-07
 ErrMax= 7.00D-07  0.00D+00 EMaxC= 1.00D-01 BMatC= 6.99D-11 BMatP= 9.69D-11
 IDIUse=1 WtCom= 1.00D+00 WtEn= 0.00D+00
 Coeff-Com: -0.249D-03-0.129D-03-0.258D-02 0.117D-02 0.113D-01-0.146D-02
 Coeff-Com: -0.136D-01-0.831D-02 0.387D-01 0.291D-01-0.329D+00-0.365D-01
 Coeff-Com:  0.131D+01
 Coeff:     -0.249D-03-0.129D-03-0.258D-02 0.117D-02 0.113D-01-0.146D-02
 Coeff:     -0.136D-01-0.831D-02 0.387D-01 0.291D-01-0.329D+00-0.365D-01
 Coeff:      0.131D+01
 Gap=     0.424 Goal=   None    Shift=    0.000
 Gap=     0.189 Goal=   None    Shift=    0.000
 RMSDP=6.48D-08 MaxDP=6.42D-06 DE=-2.85D-10 OVMax= 2.45D-05

 Cycle  22  Pass 1  IDiag  1:
 E= -691.994203048497     Delta-E=       -0.000000000303 Rises=F Damp=F
 DIIS: error= 6.57D-07 at cycle  14 NSaved=  14.
 NSaved=14 IEnMin=14 EnMin= -691.994203048497     IErMin=14 ErrMin= 6.57D-07
 ErrMax= 6.57D-07  0.00D+00 EMaxC= 1.00D-01 BMatC= 5.97D-11 BMatP= 6.99D-11
 IDIUse=1 WtCom= 1.00D+00 WtEn= 0.00D+00
 Coeff-Com:  0.119D-02-0.114D-02 0.251D-03-0.321D-02 0.106D-02-0.171D-02
 Coeff-Com:  0.344D-02-0.151D-01 0.363D-01 0.849D-01 0.473D-01-0.565D+00
 Coeff-Com: -0.837D+00 0.225D+01
 Coeff:      0.119D-02-0.114D-02 0.251D-03-0.321D-02 0.106D-02-0.171D-02
 Coeff:      0.344D-02-0.151D-01 0.363D-01 0.849D-01 0.473D-01-0.565D+00
 Coeff:     -0.837D+00 0.225D+01
 Gap=     0.424 Goal=   None    Shift=    0.000
 Gap=     0.189 Goal=   None    Shift=    0.000
 RMSDP=1.20D-07 MaxDP=1.13D-05 DE=-3.03D-10 OVMax= 4.87D-05

 Cycle  23  Pass 1  IDiag  1:
 E= -691.994203049004     Delta-E=       -0.000000000507 Rises=F Damp=F
 DIIS: error= 5.74D-07 at cycle  15 NSaved=  15.
 NSaved=15 IEnMin=15 EnMin= -691.994203049004     IErMin=15 ErrMin= 5.74D-07
 ErrMax= 5.74D-07  0.00D+00 EMaxC= 1.00D-01 BMatC= 4.70D-11 BMatP= 5.97D-11
 IDIUse=1 WtCom= 1.00D+00 WtEn= 0.00D+00
 Coeff-Com: -0.575D-02 0.179D-02 0.262D-01 0.503D-02-0.758D-01-0.147D-02
 Coeff-Com:  0.811D-01 0.367D-01-0.188D+00-0.128D+00 0.121D+01 0.192D+00
 Coeff-Com: -0.443D+01 0.317D+00 0.396D+01
 Coeff:     -0.575D-02 0.179D-02 0.262D-01 0.503D-02-0.758D-01-0.147D-02
 Coeff:      0.811D-01 0.367D-01-0.188D+00-0.128D+00 0.121D+01 0.192D+00
 Coeff:     -0.443D+01 0.317D+00 0.396D+01
 Gap=     0.424 Goal=   None    Shift=    0.000
 Gap=     0.189 Goal=   None    Shift=    0.000
 RMSDP=4.81D-07 MaxDP=4.48D-05 DE=-5.07D-10 OVMax= 1.97D-04

 Cycle  24  Pass 1  IDiag  1:
 E= -691.994203050342     Delta-E=       -0.000000001338 Rises=F Damp=F
 DIIS: error= 2.42D-07 at cycle  16 NSaved=  16.
 NSaved=16 IEnMin=16 EnMin= -691.994203050342     IErMin=16 ErrMin= 2.42D-07
 ErrMax= 2.42D-07  0.00D+00 EMaxC= 1.00D-01 BMatC= 1.07D-11 BMatP= 4.70D-11
 IDIUse=1 WtCom= 1.00D+00 WtEn= 0.00D+00
 Coeff-Com:  0.122D-02 0.155D-02 0.437D-05-0.713D-02-0.130D-01 0.131D-01
 Coeff-Com:  0.131D-01-0.503D-02-0.286D-01-0.142D-01-0.535D-01 0.192D+00
 Coeff-Com:  0.820D+00-0.104D+01-0.507D+00 0.163D+01
 Coeff:      0.122D-02 0.155D-02 0.437D-05-0.713D-02-0.130D-01 0.131D-01
 Coeff:      0.131D-01-0.503D-02-0.286D-01-0.142D-01-0.535D-01 0.192D+00
 Coeff:      0.820D+00-0.104D+01-0.507D+00 0.163D+01
 Gap=     0.424 Goal=   None    Shift=    0.000
 Gap=     0.189 Goal=   None    Shift=    0.000
 RMSDP=2.63D-07 MaxDP=2.50D-05 DE=-1.34D-09 OVMax= 1.04D-04

 Cycle  25  Pass 1  IDiag  1:
 E= -691.994203050598     Delta-E=       -0.000000000256 Rises=F Damp=F
 DIIS: error= 5.02D-08 at cycle  17 NSaved=  17.
 NSaved=17 IEnMin=17 EnMin= -691.994203050598     IErMin=17 ErrMin= 5.02D-08
 ErrMax= 5.02D-08  0.00D+00 EMaxC= 1.00D-01 BMatC= 1.04D-12 BMatP= 1.07D-11
 IDIUse=1 WtCom= 1.00D+00 WtEn= 0.00D+00
 Coeff-Com:  0.311D-03-0.277D-03-0.778D-03-0.480D-03 0.221D-02 0.350D-03
 Coeff-Com: -0.244D-02-0.518D-02 0.190D-01 0.163D-01-0.177D+00-0.307D-01
 Coeff-Com:  0.762D+00-0.663D-01-0.751D+00 0.109D+00 0.112D+01
 Coeff:      0.311D-03-0.277D-03-0.778D-03-0.480D-03 0.221D-02 0.350D-03
 Coeff:     -0.244D-02-0.518D-02 0.190D-01 0.163D-01-0.177D+00-0.307D-01
 Coeff:      0.762D+00-0.663D-01-0.751D+00 0.109D+00 0.112D+01
 Gap=     0.424 Goal=   None    Shift=    0.000
 Gap=     0.189 Goal=   None    Shift=    0.000
 RMSDP=6.16D-08 MaxDP=5.77D-06 DE=-2.56D-10 OVMax= 2.46D-05

 Cycle  26  Pass 1  IDiag  1:
 E= -691.994203050612     Delta-E=       -0.000000000014 Rises=F Damp=F
 DIIS: error= 7.64D-09 at cycle  18 NSaved=  18.
 NSaved=18 IEnMin=18 EnMin= -691.994203050612     IErMin=18 ErrMin= 7.64D-09
 ErrMax= 7.64D-09  0.00D+00 EMaxC= 1.00D-01 BMatC= 9.48D-14 BMatP= 1.04D-12
 IDIUse=1 WtCom= 1.00D+00 WtEn= 0.00D+00
 Coeff-Com:  0.999D-04-0.269D-03-0.209D-03 0.213D-03 0.155D-02-0.936D-03
 Coeff-Com: -0.114D-02-0.121D-02 0.649D-02 0.532D-02-0.357D-01-0.233D-01
 Coeff-Com:  0.113D+00 0.641D-01-0.136D+00-0.918D-01 0.238D+00 0.861D+00
 Coeff:      0.999D-04-0.269D-03-0.209D-03 0.213D-03 0.155D-02-0.936D-03
 Coeff:     -0.114D-02-0.121D-02 0.649D-02 0.532D-02-0.357D-01-0.233D-01
 Coeff:      0.113D+00 0.641D-01-0.136D+00-0.918D-01 0.238D+00 0.861D+00
 Gap=     0.424 Goal=   None    Shift=    0.000
 Gap=     0.189 Goal=   None    Shift=    0.000
 RMSDP=5.43D-09 MaxDP=5.62D-07 DE=-1.39D-11 OVMax= 2.38D-06

 SCF Done:  E(UB2PLYPD3) =  -691.994203051     A.U. after   26 cycles
            NFock= 26  Conv=0.54D-08     -V/T= 2.0026
 <Sx>= 0.0000 <Sy>= 0.0000 <Sz>= 0.5000 <S**2>= 0.7558 S= 0.5029
 <L.S>=  0.00000000000    
 KE= 6.901914448307D+02 PE=-2.198239423768D+03 EE= 5.345297609333D+02
 Annihilation of the first spin contaminant:
 S**2 before annihilation     0.7558,   after     0.7500
 Leave Link  502 at Thu Oct 10 21:55:30 2024, MaxMem=  2684354560 cpu:             312.7 elap:             112.8
 (Enter /gpfs/fs1/soft/bebop/software/custom-built/gaussian/16-c.02/g16/l508.exe)
 QCSCF skips out because SCF is already converged.
 Leave Link  508 at Thu Oct 10 21:55:30 2024, MaxMem=  2684354560 cpu:               0.0 elap:               0.0
 (Enter /gpfs/fs1/soft/bebop/software/custom-built/gaussian/16-c.02/g16/l801.exe)
 DoSCS=T DFT=T ScalE2(SS,OS)=  0.270000  0.270000
 ExpMin= 1.03D-01 ExpMax= 4.56D+05 ExpMxC= 1.44D+03 IAcc=3 IRadAn=         5 AccDes= 0.00D+00
 HarFok:  IExCor=  205 AccDes= 0.00D+00 IRadAn=         5 IDoV=-2 UseB2=F ITyADJ=14
 ICtDFT= 12500011 ScaDFX=  1.000000  1.000000  1.000000  1.000000
 Largest valence mixing into a core orbital is  1.86D-04
 Largest core mixing into a valence orbital is  7.41D-05
 Largest valence mixing into a core orbital is  1.96D-04
 Largest core mixing into a valence orbital is  8.08D-05
 Range of M.O.s used for correlation:    11   296
 NBasis=   296 NAE=    29 NBE=    28 NFC=    10 NFV=     0
 NROrb=    286 NOA=    19 NOB=    18 NVA=   267 NVB=   268

 **** Warning!!: The largest alpha MO coefficient is  0.11072428D+02


 **** Warning!!: The largest beta MO coefficient is  0.12569458D+02

 Leave Link  801 at Thu Oct 10 21:55:30 2024, MaxMem=  2684354560 cpu:               0.5 elap:               0.1
 (Enter /gpfs/fs1/soft/bebop/software/custom-built/gaussian/16-c.02/g16/l906.exe)
 DoSCS=T DFT=T ScalE2(SS,OS)=  0.270000  0.270000
 Frozen-core derivative calculation, NFC=  10 NFV=   0.
 FulOut=F Deriv=T AODrv=T NAtomX=    14
   MMem=           0  MDisk=          19 MDiskD=          19
  W3Min=     5734112 MinDsk=     8928555 NBas6D=         334
 NBas2D=       56620    NTT=       55945    LW2=     7400000
    MDV=  2682914140 MDiskM=       40133 NBas2p=       56001
 Disk-based method using ON**2 memory for 19 occupieds at a time.
 Permanent disk used for amplitudes=    86045022 words.
 Estimated scratch disk usage=  1271118188 words.
 IMap=   1   2   3   4   5   6   7   8   9  10  11  12  13  14  15  16  17  18  19  20
 IMap=  21  22  23  24  25  26  27  28  29
 Actual    scratch disk usage=  1229353324 words.
 JobTyp=2 Pass  1:  I=  11 to  29 NPSUse=  6 ParTrn=T ParDer=T DoDerP=T.
 (rs|ai) integrals will be sorted in core.
 IMap=   1   2   3   4   5   6   7   8   9  10  11  12  13  14  15  16  17  18  19  20
 IMap=  21  22  23  24  25  26  27  28
 Actual    scratch disk usage=  1229353324 words.
 JobTyp=3 Pass  1:  I=  11 to  28 NPSUse=  6 ParTrn=T ParDer=T DoDerP=T.
 (rs|ai) integrals will be sorted in core.
 Spin components of T(2) and E(2):
     alpha-alpha T2 =       0.6610328189D-01 E2=     -0.4468525237D-01
     alpha-beta  T2 =       0.3749472318D+00 E2=     -0.2715749730D+00
     beta-beta   T2 =       0.6315704749D-01 E2=     -0.4135360655D-01
 The integrals were generated   2 times.
 (S**2,0)=  0.75580D+00           (S**2,1)=  0.74620D+00
 Scaling Projection term by:   0.270000
 E(PUHF)=      -0.69199698070D+03        E(PMP2)=      -0.69235194747D+03
 E2(B2PLYPD3) =    -0.3576138319D+00 E(B2PLYPD3) =    -0.69235181688254D+03
 Leave Link  906 at Thu Oct 10 22:31:09 2024, MaxMem=  2684354560 cpu:           12802.9 elap:            2139.1
 (Enter /gpfs/fs1/soft/bebop/software/custom-built/gaussian/16-c.02/g16/l1101.exe)
 Using compressed Sx but separate Hx and Fx, NAtomX=    14.
 Will process     15 centers per pass.
 R6Disp: Adding Grimme-D3(BJ) dispersion energy 1st derivatives to the gradient.
 Leave Link 1101 at Thu Oct 10 22:31:10 2024, MaxMem=  2684354560 cpu:               1.2 elap:               0.2
 (Enter /gpfs/fs1/soft/bebop/software/custom-built/gaussian/16-c.02/g16/l1102.exe)
 Leave Link 1102 at Thu Oct 10 22:31:10 2024, MaxMem=  2684354560 cpu:               0.1 elap:               0.0
 (Enter /gpfs/fs1/soft/bebop/software/custom-built/gaussian/16-c.02/g16/l1110.exe)
 Forming Gx(P) for the SCF density, NAtomX=    14.
 Integral derivatives from FoFJK, PRISM(SPDF).
 Do as many integral derivatives as possible in FoFJK.
 G2DrvN: MDV=    2684352982.
 G2DrvN: will do    15 centers at a time, making    1 passes.
 Calling FoFCou, ICntrl=  3107 FMM=F I1Cent=   0 AccDes= 0.00D+00.
 FoFJK:  IHMeth= 1 ICntrl=    3107 DoSepK=F KAlg= 0 I1Cent=           0 FoldK=F
 IRaf=         0 NMat=       1 IRICut=       1 DoRegI=T DoRafI=F ISym2E= 0 IDoP0=0 IntGTp=1.
 FoFCou: FMM=F IPFlag=           0 FMFlag=      100000 FMFlg1=           0
         NFxFlg=           0 DoJE=F BraDBF=F KetDBF=F FulRan=T
         wScrn=  0.000000 ICntrl=      3107 IOpCl=  1 I1Cent=           0 NGrid=           0
         NMat0=    1 NMatS0=      1 NMatT0=    0 NMatD0=    1 NMtDS0=    0 NMtDT0=    0
 Symmetry not used in FoFCou.
 End of G2Drv F.D. properties file   721 does not exist.
 End of G2Drv F.D. properties file   722 does not exist.
 End of G2Drv F.D. properties file   788 does not exist.
 Leave Link 1110 at Thu Oct 10 22:32:43 2024, MaxMem=  2684354560 cpu:             554.8 elap:              92.7
 (Enter /gpfs/fs1/soft/bebop/software/custom-built/gaussian/16-c.02/g16/l1002.exe)
 Minotr:  UHF open shell wavefunction.
          IDoAtm=11111111111111
          Frozen-core window.
          Direct CPHF calculation.
          Differentiating once with respect to electric field.
                with respect to dipole field.
          Differentiating once with respect to nuclear coordinates.
          Requested convergence is 1.0D-08 RMS, and 1.0D-07 maximum.
          Secondary convergence is 1.0D-12 RMS, and 1.0D-12 maximum.
          NewPWx=T KeepS1=T KeepF1=T KeepIn=T MapXYZ=F SortEE=F KeepMc=T.
         4138 words used for storage of precomputed grid.
 Keep R1 and R2 ints in memory in canonical form, NReq=1950980002.
 FoFCou: FMM=F IPFlag=           0 FMFlag=           0 FMFlg1=           0
         NFxFlg=           0 DoJE=F BraDBF=F KetDBF=F FulRan=T
         wScrn=  0.000000 ICntrl=       600 IOpCl=  0 I1Cent=           0 NGrid=           0
         NMat0=    1 NMatS0=  43956 NMatT0=    0 NMatD0=    1 NMtDS0=    0 NMtDT0=    0
 Symmetry not used in FoFCou.
 Two-electron integral symmetry not used.
          MDV=    2684354560 using IRadAn=       1.
          Solving linear equations simultaneously, MaxMat=       0.
          There are    45 degrees of freedom in the 1st order CPHF.  IDoFFX=6 NUNeed=    45.
     42 vectors produced by pass  0 Test12= 3.39D-14 2.22D-09 XBig12= 8.63D+01 4.67D+00.
 AX will form    42 AO Fock derivatives at one time.
     42 vectors produced by pass  1 Test12= 3.39D-14 2.22D-09 XBig12= 7.43D+00 4.35D-01.
     42 vectors produced by pass  2 Test12= 3.39D-14 2.22D-09 XBig12= 3.68D-01 1.39D-01.
     42 vectors produced by pass  3 Test12= 3.39D-14 2.22D-09 XBig12= 8.24D-03 1.83D-02.
     42 vectors produced by pass  4 Test12= 3.39D-14 2.22D-09 XBig12= 1.23D-04 1.17D-03.
     42 vectors produced by pass  5 Test12= 3.39D-14 2.22D-09 XBig12= 2.17D-06 1.66D-04.
     37 vectors produced by pass  6 Test12= 3.39D-14 2.22D-09 XBig12= 2.33D-08 1.76D-05.
     16 vectors produced by pass  7 Test12= 3.39D-14 2.22D-09 XBig12= 2.10D-10 1.34D-06.
      3 vectors produced by pass  8 Test12= 3.39D-14 2.22D-09 XBig12= 2.10D-12 1.19D-07.
      2 vectors produced by pass  9 Test12= 3.39D-14 2.22D-09 XBig12= 2.12D-14 1.12D-08.
 InvSVY:  IOpt=1 It=  1 EMax= 7.11D-15
 Solved reduced A of dimension   310 with    45 vectors.
 FullF1:  Do perturbations      1 to      45.
 Saving first derivative matrices.
 End of Minotr F.D. properties file   721 does not exist.
 End of Minotr F.D. properties file   722 does not exist.
 End of Minotr F.D. properties file   788 does not exist.
 Leave Link 1002 at Thu Oct 10 22:35:00 2024, MaxMem=  2684354560 cpu:             817.0 elap:             136.6
 (Enter /gpfs/fs1/soft/bebop/software/custom-built/gaussian/16-c.02/g16/l811.exe)
 MDV=  2684354560.
 DoSCS=T DFT=T ScalE2(SS,OS)=  0.270000  0.270000
 Form MO integral derivatives with frozen-active canonical formalism.
 MOERI=1 MOERIx=1 NAtoms=    14 NAtomX=    14.
 Discarding MO integrals.
 MO basis two electron integral derivatives will not be stored on disk.
 IAlg= 3 DoFC=T DoPWx=T Debug=F.
 Frozen-core window:  NFC=  10 NFV=   0.
 Reordered first order wavefunction length =    346421397
 In DefCFB: NBatch=  1 ICI= 29 ICA=268 LFMax= 54
            Large arrays: LIAPS=  6029517632 LIARS=  1417333008 words.
 In StABat: MaxSiz= 39 MinSiz= 30 NAtomB= 10
 DoIAMN: NPSUse=  6.
 In DefCFB: NBatch=  1 ICI= 29 ICA=268 LFMax= 54
            Large arrays: LIAPS=  6029517632 LIARS=  1417333008 words.
 In StABat: MaxSiz= 39 MinSiz= 30 NAtomB= 10
 Leave Link  811 at Thu Oct 10 23:03:53 2024, MaxMem=  2684354560 cpu:           10372.4 elap:            1733.3
 (Enter /gpfs/fs1/soft/bebop/software/custom-built/gaussian/16-c.02/g16/l804.exe)
 Frozen-core window:  NFC=  10 NFV=   0.
 Open-shell transformation, MDV=  2684354560 ITran=4 ISComp=1.
 Semi-Direct transformation.
 ModeAB=           4 MOrb=            29 LenV=    2681683220
 LASXX=    352559467 LTotXX=   352559467 LenRXX=   712031635
 LTotAB=   359472168 MaxLAS=   466385888 LenRXY=           0
 NonZer=  1064591102 LenScr=  1603149824 LnRSAI=   466385888
 LnScr1=   702322688 LExtra=           0 Total=   3483890035
 MaxDsk=          -1 SrtSym=           T ITran=            4
 DoSDTr:  NPSUse=  6
 JobTyp=1 Pass  1:  I=   1 to  29.
 (rs|ai) integrals will be sorted in core.
 Complete sort for first half transformation.
 First half transformation complete.
 Begin second half transformation for I=  10.
 Begin second half transformation for I=  20.
 Complete sort for second half transformation.
 Second half transformation complete.
 ModeAB=           4 MOrb=            28 LenV=    2681683220
 LASXX=    341220355 LTotXX=   341220355 LenRXX=   624224335
 LTotAB=   283003980 MaxLAS=   450303616 LenRXY=           0
 NonZer=   965444690 LenScr=  1453846528 LnRSAI=   450303616
 LnScr1=   678105088 LExtra=           0 Total=   3206479567
 MaxDsk=          -1 SrtSym=           T ITran=            4
 DoSDTr:  NPSUse=  6
 JobTyp=2 Pass  1:  I=   1 to  28.
 (rs|ai) integrals will be sorted in core.
 Complete sort for first half transformation.
 First half transformation complete.
 Begin second half transformation for I=  10.
 Begin second half transformation for I=  20.
 Complete sort for second half transformation.
 Second half transformation complete.
 SymMOI:  orbitals are not symmetric.
 DoSCS=T DFT=T ScalE2(SS,OS)=  0.270000  0.270000
 Spin components of T(2) and E(2):
     alpha-alpha T2 =       0.6610328189D-01 E2=     -0.4468525237D-01
     alpha-beta  T2 =       0.3749472318D+00 E2=     -0.2715749730D+00
     beta-beta   T2 =       0.6315704749D-01 E2=     -0.4135360655D-01
 E2(B2PLYPD3) =    -0.3576138319D+00 E(B2PLYPD3) =    -0.69235181688254D+03
 (S**2,0)=  0.75580D+00           (S**2,1)=  0.74620D+00
 Scaling Projection term by:   0.270000
 E(PUHF)=      -0.69199698070D+03        E(PMP2)=      -0.69235194747D+03
 Leave Link  804 at Thu Oct 10 23:06:44 2024, MaxMem=  2684354560 cpu:            1021.1 elap:             170.6
 (Enter /gpfs/fs1/soft/bebop/software/custom-built/gaussian/16-c.02/g16/l1002.exe)
 Minotr:  UHF open shell wavefunction.
          Computing MP2/KS-MP2 derivatives.
          Using Z-Vector for PSCF gradient.
          Skipping F1 and S1 gradient terms here.
          IDoAtm=11111111111111
          Frozen-core window.
          Direct CPHF calculation.
          Differentiating once with respect to electric field.
                with respect to dipole field.
          Differentiating once with respect to nuclear coordinates.
          Requested convergence is 1.0D-10 RMS, and 1.0D-09 maximum.
          NewPWx=T KeepS1=F KeepF1=F KeepIn=T MapXYZ=F SortEE=F KeepMc=T.
 Keep R1 and R2 ints in memory in canonical form, NReq=1950975864.
 FoFCou: FMM=F IPFlag=           0 FMFlag=           0 FMFlg1=           0
         NFxFlg=           0 DoJE=F BraDBF=F KetDBF=F FulRan=T
         wScrn=  0.000000 ICntrl=       600 IOpCl=  0 I1Cent=           0 NGrid=           0
         NMat0=    1 NMatS0=  43956 NMatT0=    0 NMatD0=    1 NMtDS0=    0 NMtDT0=    0
 Symmetry not used in FoFCou.
 Two-electron integral symmetry not used.
          MDV=    2684354560 using IRadAn=       5.
          Solving linear equations separately, MaxMat=       0.
          There are     1 degrees of freedom in the 1st order CPHF.  IDoFFX=0 NUNeed=     1.
 LinEq1:  Iter=  0 NonCon=     1 RMS=9.82D-04 Max=7.37D-02 NDo=     1
 AX will form     1 AO Fock derivatives at one time.
 LinEq1:  Iter=  1 NonCon=     1 RMS=3.31D-04 Max=8.59D-03 NDo=     1
 LinEq1:  Iter=  2 NonCon=     1 RMS=1.93D-04 Max=7.25D-03 NDo=     1
 LinEq1:  Iter=  3 NonCon=     1 RMS=8.83D-05 Max=1.56D-03 NDo=     1
 LinEq1:  Iter=  4 NonCon=     1 RMS=3.52D-05 Max=1.10D-03 NDo=     1
 LinEq1:  Iter=  5 NonCon=     1 RMS=1.68D-05 Max=1.08D-03 NDo=     1
 LinEq1:  Iter=  6 NonCon=     1 RMS=8.39D-06 Max=6.85D-04 NDo=     1
 LinEq1:  Iter=  7 NonCon=     1 RMS=3.44D-06 Max=1.60D-04 NDo=     1
 LinEq1:  Iter=  8 NonCon=     1 RMS=1.77D-06 Max=3.85D-05 NDo=     1
 LinEq1:  Iter=  9 NonCon=     1 RMS=7.06D-07 Max=1.37D-05 NDo=     1
 LinEq1:  Iter= 10 NonCon=     1 RMS=2.33D-07 Max=4.90D-06 NDo=     1
 LinEq1:  Iter= 11 NonCon=     1 RMS=1.16D-07 Max=2.89D-06 NDo=     1
 LinEq1:  Iter= 12 NonCon=     1 RMS=5.15D-08 Max=1.33D-06 NDo=     1
 LinEq1:  Iter= 13 NonCon=     1 RMS=2.31D-08 Max=9.92D-07 NDo=     1
 LinEq1:  Iter= 14 NonCon=     1 RMS=9.63D-09 Max=7.79D-07 NDo=     1
 LinEq1:  Iter= 15 NonCon=     1 RMS=4.39D-09 Max=2.75D-07 NDo=     1
 LinEq1:  Iter= 16 NonCon=     1 RMS=1.66D-09 Max=4.06D-08 NDo=     1
 LinEq1:  Iter= 17 NonCon=     1 RMS=4.29D-10 Max=7.22D-09 NDo=     1
 LinEq1:  Iter= 18 NonCon=     1 RMS=1.24D-10 Max=2.85D-09 NDo=     1
 LinEq1:  Iter= 19 NonCon=     0 RMS=3.33D-11 Max=7.85D-10 NDo=     1
 Linear equations converged to 1.000D-10 1.000D-09 after    19 iterations.
 End of Minotr F.D. properties file   721 does not exist.
 End of Minotr F.D. properties file   722 does not exist.
 End of Minotr F.D. properties file   788 does not exist.
 Leave Link 1002 at Thu Oct 10 23:08:33 2024, MaxMem=  2684354560 cpu:             386.0 elap:             108.7
 (Enter /gpfs/fs1/soft/bebop/software/custom-built/gaussian/16-c.02/g16/l1102.exe)
 Use density number 2.
 Symmetrizing basis deriv contribution to polar:
 IMax=3 JMax=2 DiffMx= 0.00D+00
 Leave Link 1102 at Thu Oct 10 23:08:33 2024, MaxMem=  2684354560 cpu:               0.2 elap:               0.1
 (Enter /gpfs/fs1/soft/bebop/software/custom-built/gaussian/16-c.02/g16/l1110.exe)
 Forming Gx(P) for generalized density number  2 NAtomX=    14.
 Integral derivatives from FoFJK, PRISM(SPDF).
 Do as many integral derivatives as possible in FoFJK.
 G2DrvN: MDV=    2684352982.
 G2DrvN: will do    15 centers at a time, making    1 passes.
 Calling FoFCou, ICntrl=  3107 FMM=F I1Cent=   0 AccDes= 0.00D+00.
 FoFJK:  IHMeth= 1 ICntrl=    3107 DoSepK=F KAlg= 0 I1Cent=           0 FoldK=F
 IRaf=         0 NMat=       1 IRICut=       1 DoRegI=T DoRafI=F ISym2E= 0 IDoP0=0 IntGTp=1.
 FoFCou: FMM=F IPFlag=           0 FMFlag=      100000 FMFlg1=           0
         NFxFlg=           0 DoJE=F BraDBF=F KetDBF=F FulRan=T
         wScrn=  0.000000 ICntrl=      3107 IOpCl=  1 I1Cent=           0 NGrid=           0
         NMat0=    1 NMatS0=      1 NMatT0=    0 NMatD0=    1 NMtDS0=    0 NMtDT0=    0
 Symmetry not used in FoFCou.
 End of G2Drv F.D. properties file   721 does not exist.
 End of G2Drv F.D. properties file   722 does not exist.
 End of G2Drv F.D. properties file   788 does not exist.
 Leave Link 1110 at Thu Oct 10 23:10:08 2024, MaxMem=  2684354560 cpu:             567.1 elap:              94.8
 (Enter /gpfs/fs1/soft/bebop/software/custom-built/gaussian/16-c.02/g16/l1112.exe)
 MP22nd: MDV=    2684354560
 DoSCS=T DFT=T ScalE2(SS,OS)=  0.270000  0.270000
 This link is doing NAtomX=    14 total of    45 degrees of freedom.
 Using ON3 I/O method in MakUI.
 Frozen-core window:  NFC=  10 NFV=   0.
 Using Ix for Sx.
 Use MO integrals over full window.
 Using OV2 memory method for fx*t*t/D, MaxI=    28 DoOO2=F NP=   6.
 Would need an additional   464343840 words for in-memory AO integral storage.
 DD1Dir will call FoFJK   4 times, MxPair=       602
 NAB=   812 NAA=   406 NBB=   378 NumPrc=  6.
 DD1Dir:  Pass   1 NRAB=   301 NRAA=     0 NRBB=     0 NR=   602.
 FoFJK:  IHMeth= 1 ICntrl=     200 DoSepK=F KAlg= 0 I1Cent=           0 FoldK=F
 IRaf= 990000000 NMat=     602 IRICut=     752 DoRegI=T DoRafI=T ISym2E= 2 IDoP0=3 IntGTp=3.
 FoFCou: FMM=F IPFlag=           0 FMFlag=           0 FMFlg1=           0
         NFxFlg=           0 DoJE=F BraDBF=F KetDBF=F FulRan=T
         wScrn=  0.000000 ICntrl=       200 IOpCl=  0 I1Cent=           0 NGrid=           0
         NMat0=  602 NMatS0=      0 NMatT0=  301 NMatD0=  602 NMtDS0=    0 NMtDT0=    0
 Integrals replicated using symmetry in FoFCou.
 Raff kept on since  95.92% of shell-pairs survive, threshold=   0.20 IRatSp=96.
 DD1Dir:  Pass   2 NRAB=   301 NRAA=     0 NRBB=     0 NR=   602.
 DD1Dir:  Pass   3 NRAB=   210 NRAA=   182 NRBB=     0 NR=   602.
 DD1Dir:  Pass   4 NRAB=     0 NRAA=   224 NRBB=   378 NR=   602.
 Symmetry is being used.
 R6Disp: Adding Grimme-D3(BJ) dispersion energy 1st derivatives to the gradient.
 Discarding MO integrals.
 Leave Link 1112 at Thu Oct 10 23:28:59 2024, MaxMem=  2684354560 cpu:            6764.8 elap:            1130.5
 (Enter /gpfs/fs1/soft/bebop/software/custom-built/gaussian/16-c.02/g16/l601.exe)
 Copying SCF densities to generalized density rwf, IOpCl= 1 IROHF=0.

 **********************************************************************

            Population analysis using the SCF Density.

 **********************************************************************

 Orbital symmetries:
 Alpha Orbitals:
       Occupied  (A) (A) (A) (A) (A) (A) (A) (A) (A) (A) (A) (A)
                 (A) (A) (A) (A) (A) (A) (A) (A) (A) (A) (A) (A)
                 (A) (A) (A) (A) (A)
       Virtual   (A) (A) (A) (A) (A) (A) (A) (A) (A) (A) (A) (A)
                 (A) (A) (A) (A) (A) (A) (A) (A) (A) (A) (A) (A)
                 (A) (A) (A) (A) (A) (A) (A) (A) (A) (A) (A) (A)
                 (A) (A) (A) (A) (A) (A) (A) (A) (A) (A) (A) (A)
                 (A) (A) (A) (A) (A) (A) (A) (A) (A) (A) (A) (A)
                 (A) (A) (A) (A) (A) (A) (A) (A) (A) (A) (A) (A)
                 (A) (A) (A) (A) (A) (A) (A) (A) (A) (A) (A) (A)
                 (A) (A) (A) (A) (A) (A) (A) (A) (A) (A) (A) (A)
                 (A) (A) (A) (A) (A) (A) (A) (A) (A) (A) (A) (A)
                 (A) (A) (A) (A) (A) (A) (A) (A) (A) (A) (A) (A)
                 (A) (A) (A) (A) (A) (A) (A) (A) (A) (A) (A) (A)
                 (A) (A) (A) (A) (A) (A) (A) (A) (A) (A) (A) (A)
                 (A) (A) (A) (A) (A) (A) (A) (A) (A) (A) (A) (A)
                 (A) (A) (A) (A) (A) (A) (A) (A) (A) (A) (A) (A)
                 (A) (A) (A) (A) (A) (A) (A) (A) (A) (A) (A) (A)
                 (A) (A) (A) (A) (A) (A) (A) (A) (A) (A) (A) (A)
                 (A) (A) (A) (A) (A) (A) (A) (A) (A) (A) (A) (A)
                 (A) (A) (A) (A) (A) (A) (A) (A) (A) (A) (A) (A)
                 (A) (A) (A) (A) (A) (A) (A) (A) (A) (A) (A) (A)
                 (A) (A) (A) (A) (A) (A) (A) (A) (A) (A) (A) (A)
                 (A) (A) (A) (A) (A) (A) (A) (A) (A) (A) (A) (A)
                 (A) (A) (A) (A) (A) (A) (A) (A) (A) (A) (A) (A)
                 (A) (A) (A)
 Beta  Orbitals:
       Occupied  (A) (A) (A) (A) (A) (A) (A) (A) (A) (A) (A) (A)
                 (A) (A) (A) (A) (A) (A) (A) (A) (A) (A) (A) (A)
                 (A) (A) (A) (A)
       Virtual   (A) (A) (A) (A) (A) (A) (A) (A) (A) (A) (A) (A)
                 (A) (A) (A) (A) (A) (A) (A) (A) (A) (A) (A) (A)
                 (A) (A) (A) (A) (A) (A) (A) (A) (A) (A) (A) (A)
                 (A) (A) (A) (A) (A) (A) (A) (A) (A) (A) (A) (A)
                 (A) (A) (A) (A) (A) (A) (A) (A) (A) (A) (A) (A)
                 (A) (A) (A) (A) (A) (A) (A) (A) (A) (A) (A) (A)
                 (A) (A) (A) (A) (A) (A) (A) (A) (A) (A) (A) (A)
                 (A) (A) (A) (A) (A) (A) (A) (A) (A) (A) (A) (A)
                 (A) (A) (A) (A) (A) (A) (A) (A) (A) (A) (A) (A)
                 (A) (A) (A) (A) (A) (A) (A) (A) (A) (A) (A) (A)
                 (A) (A) (A) (A) (A) (A) (A) (A) (A) (A) (A) (A)
                 (A) (A) (A) (A) (A) (A) (A) (A) (A) (A) (A) (A)
                 (A) (A) (A) (A) (A) (A) (A) (A) (A) (A) (A) (A)
                 (A) (A) (A) (A) (A) (A) (A) (A) (A) (A) (A) (A)
                 (A) (A) (A) (A) (A) (A) (A) (A) (A) (A) (A) (A)
                 (A) (A) (A) (A) (A) (A) (A) (A) (A) (A) (A) (A)
                 (A) (A) (A) (A) (A) (A) (A) (A) (A) (A) (A) (A)
                 (A) (A) (A) (A) (A) (A) (A) (A) (A) (A) (A) (A)
                 (A) (A) (A) (A) (A) (A) (A) (A) (A) (A) (A) (A)
                 (A) (A) (A) (A) (A) (A) (A) (A) (A) (A) (A) (A)
                 (A) (A) (A) (A) (A) (A) (A) (A) (A) (A) (A) (A)
                 (A) (A) (A) (A) (A) (A) (A) (A) (A) (A) (A) (A)
                 (A) (A) (A) (A)
 The electronic state is 2-A.
 Alpha  occ. eigenvalues -- -102.97305 -19.73852 -10.67957 -10.67583 -10.61601
 Alpha  occ. eigenvalues --  -10.61498  -9.95935  -7.61302  -7.59044  -7.59041
 Alpha  occ. eigenvalues --   -1.21600  -0.96272  -0.87174  -0.85880  -0.73938
 Alpha  occ. eigenvalues --   -0.66772  -0.60293  -0.53089  -0.51340  -0.49964
 Alpha  occ. eigenvalues --   -0.47976  -0.46953  -0.46150  -0.43214  -0.42217
 Alpha  occ. eigenvalues --   -0.41193  -0.40608  -0.35781  -0.34446
 Alpha virt. eigenvalues --    0.07958   0.10608   0.10994   0.14146   0.14418
 Alpha virt. eigenvalues --    0.15065   0.15441   0.17833   0.19349   0.21443
 Alpha virt. eigenvalues --    0.21730   0.25327   0.27575   0.28947   0.31145
 Alpha virt. eigenvalues --    0.33946   0.36025   0.36562   0.38516   0.39859
 Alpha virt. eigenvalues --    0.41002   0.42032   0.42147   0.43167   0.44826
 Alpha virt. eigenvalues --    0.46120   0.48932   0.49661   0.49871   0.50377
 Alpha virt. eigenvalues --    0.52047   0.52881   0.53422   0.53937   0.54542
 Alpha virt. eigenvalues --    0.54693   0.56661   0.57575   0.58681   0.59428
 Alpha virt. eigenvalues --    0.61370   0.62127   0.63418   0.64936   0.68850
 Alpha virt. eigenvalues --    0.74251   0.79786   0.79905   0.83875   0.85314
 Alpha virt. eigenvalues --    0.88937   0.90440   0.91928   0.92948   0.96679
 Alpha virt. eigenvalues --    0.98176   1.00377   1.03909   1.03943   1.05535
 Alpha virt. eigenvalues --    1.07997   1.08650   1.10685   1.11744   1.13309
 Alpha virt. eigenvalues --    1.15885   1.20066   1.21301   1.23255   1.24189
 Alpha virt. eigenvalues --    1.24684   1.30971   1.32583   1.33186   1.35540
 Alpha virt. eigenvalues --    1.36157   1.38710   1.39715   1.41356   1.42039
 Alpha virt. eigenvalues --    1.44727   1.46278   1.49492   1.50284   1.51165
 Alpha virt. eigenvalues --    1.53236   1.57487   1.62114   1.63960   1.66989
 Alpha virt. eigenvalues --    1.69658   1.80580   1.84543   1.88956   1.96486
 Alpha virt. eigenvalues --    2.00455   2.01567   2.03505   2.04275   2.06407
 Alpha virt. eigenvalues --    2.07919   2.09784   2.14505   2.15834   2.16745
 Alpha virt. eigenvalues --    2.17746   2.20052   2.20203   2.21074   2.21996
 Alpha virt. eigenvalues --    2.24490   2.30548   2.33955   2.34202   2.36361
 Alpha virt. eigenvalues --    2.38662   2.39029   2.42410   2.47246   2.47866
 Alpha virt. eigenvalues --    2.51791   2.53342   2.56057   2.58519   2.62968
 Alpha virt. eigenvalues --    2.67928   2.70315   2.75471   2.76681   2.79115
 Alpha virt. eigenvalues --    2.83616   2.85870   2.86239   2.88271   2.90203
 Alpha virt. eigenvalues --    2.90793   2.94312   2.95305   2.97307   2.99167
 Alpha virt. eigenvalues --    3.03199   3.03842   3.04664   3.07628   3.07786
 Alpha virt. eigenvalues --    3.11076   3.13072   3.16967   3.18703   3.19525
 Alpha virt. eigenvalues --    3.19927   3.23889   3.24584   3.25915   3.28284
 Alpha virt. eigenvalues --    3.31266   3.34519   3.35827   3.37507   3.40752
 Alpha virt. eigenvalues --    3.41728   3.45183   3.46200   3.50419   3.51672
 Alpha virt. eigenvalues --    3.53798   3.54196   3.54973   3.57850   3.61055
 Alpha virt. eigenvalues --    3.62692   3.62716   3.65020   3.70487   3.74192
 Alpha virt. eigenvalues --    3.77788   3.78060   3.80471   3.82977   3.88675
 Alpha virt. eigenvalues --    3.89405   3.91028   3.94490   3.96271   3.97249
 Alpha virt. eigenvalues --    3.98852   4.00305   4.02875   4.06450   4.07014
 Alpha virt. eigenvalues --    4.10698   4.13184   4.13625   4.15882   4.17445
 Alpha virt. eigenvalues --    4.17853   4.22026   4.23102   4.24445   4.25243
 Alpha virt. eigenvalues --    4.30013   4.31317   4.37368   4.39152   4.41574
 Alpha virt. eigenvalues --    4.42891   4.44359   4.45582   4.50952   4.51364
 Alpha virt. eigenvalues --    4.53466   4.56608   4.62951   4.67862   4.68671
 Alpha virt. eigenvalues --    4.70323   4.82396   4.82526   4.92296   4.94930
 Alpha virt. eigenvalues --    4.95523   4.98615   5.04346   5.05728   5.08052
 Alpha virt. eigenvalues --    5.08757   5.12649   5.16580   5.23303   5.24207
 Alpha virt. eigenvalues --    5.28858   5.30102   5.30799   5.32098   5.39713
 Alpha virt. eigenvalues --    5.42339   5.46249   5.51125   5.52092   5.52640
 Alpha virt. eigenvalues --    5.54582   5.58526   5.61508   5.65130   5.66480
 Alpha virt. eigenvalues --    5.78559   5.80729   5.91740   5.94445   5.96386
 Alpha virt. eigenvalues --    6.00067   6.08074   6.11376   6.12493   6.22538
 Alpha virt. eigenvalues --    6.26136   6.67872   6.87108   7.03383   7.11288
 Alpha virt. eigenvalues --    7.20645   7.49663  11.01744  11.36721  12.89188
 Alpha virt. eigenvalues --   13.49367  14.32834
  Beta  occ. eigenvalues -- -102.96467 -19.73720 -10.67854 -10.67574 -10.61588
  Beta  occ. eigenvalues --  -10.61497  -9.95117  -7.58598  -7.58595  -7.58065
  Beta  occ. eigenvalues --   -1.21322  -0.88762  -0.86909  -0.85794  -0.73503
  Beta  occ. eigenvalues --   -0.66532  -0.59954  -0.52830  -0.50948  -0.49800
  Beta  occ. eigenvalues --   -0.47188  -0.46872  -0.43107  -0.42029  -0.39504
  Beta  occ. eigenvalues --   -0.39298  -0.35591  -0.34220
  Beta virt. eigenvalues --   -0.15342   0.08017   0.10705   0.11075   0.14205
  Beta virt. eigenvalues --    0.14496   0.15103   0.15535   0.17967   0.19738
  Beta virt. eigenvalues --    0.21504   0.21769   0.25387   0.27608   0.29360
  Beta virt. eigenvalues --    0.31200   0.34185   0.36388   0.38768   0.39704
  Beta virt. eigenvalues --    0.40629   0.41949   0.42353   0.43907   0.44800
  Beta virt. eigenvalues --    0.45691   0.47166   0.49574   0.50057   0.50485
  Beta virt. eigenvalues --    0.51033   0.52546   0.53206   0.53658   0.54383
  Beta virt. eigenvalues --    0.55251   0.56256   0.57215   0.58288   0.59750
  Beta virt. eigenvalues --    0.61183   0.61624   0.63072   0.63574   0.65724
  Beta virt. eigenvalues --    0.69475   0.74668   0.79870   0.80007   0.84156
  Beta virt. eigenvalues --    0.85377   0.89124   0.90850   0.92182   0.93091
  Beta virt. eigenvalues --    0.97270   0.98566   1.00405   1.03931   1.04226
  Beta virt. eigenvalues --    1.05685   1.08025   1.08706   1.10753   1.11845
  Beta virt. eigenvalues --    1.13520   1.15951   1.20111   1.21430   1.23272
  Beta virt. eigenvalues --    1.24295   1.24824   1.31008   1.32592   1.33220
  Beta virt. eigenvalues --    1.35560   1.36189   1.38755   1.39807   1.41367
  Beta virt. eigenvalues --    1.42129   1.44759   1.46367   1.49522   1.50366
  Beta virt. eigenvalues --    1.51213   1.53244   1.57502   1.62159   1.64075
  Beta virt. eigenvalues --    1.67285   1.69691   1.80649   1.84678   1.89162
  Beta virt. eigenvalues --    1.96661   2.01453   2.02669   2.04406   2.06631
  Beta virt. eigenvalues --    2.08829   2.11015   2.12264   2.16523   2.19458
  Beta virt. eigenvalues --    2.20260   2.20302   2.20717   2.20922   2.22428
  Beta virt. eigenvalues --    2.24724   2.25694   2.31440   2.34737   2.36832
  Beta virt. eigenvalues --    2.37644   2.39367   2.40272   2.42582   2.47552
  Beta virt. eigenvalues --    2.48345   2.52301   2.53695   2.56329   2.58652
  Beta virt. eigenvalues --    2.63073   2.67964   2.70386   2.75553   2.76742
  Beta virt. eigenvalues --    2.79177   2.83740   2.85920   2.86296   2.88314
  Beta virt. eigenvalues --    2.90246   2.90845   2.94352   2.95333   2.97350
  Beta virt. eigenvalues --    2.99215   3.03250   3.03931   3.04742   3.07683
  Beta virt. eigenvalues --    3.07867   3.11129   3.13105   3.16993   3.18800
  Beta virt. eigenvalues --    3.19548   3.19991   3.23917   3.24615   3.25992
  Beta virt. eigenvalues --    3.28400   3.31303   3.34583   3.35867   3.37600
  Beta virt. eigenvalues --    3.40831   3.41738   3.45223   3.46241   3.50469
  Beta virt. eigenvalues --    3.51701   3.53837   3.54232   3.54982   3.57875
  Beta virt. eigenvalues --    3.61080   3.62707   3.62729   3.65039   3.70504
  Beta virt. eigenvalues --    3.74246   3.77801   3.78101   3.80493   3.83049
  Beta virt. eigenvalues --    3.88690   3.89431   3.91050   3.94516   3.96300
  Beta virt. eigenvalues --    3.97269   3.98872   4.00390   4.02902   4.06466
  Beta virt. eigenvalues --    4.07077   4.10712   4.13248   4.13648   4.15926
  Beta virt. eigenvalues --    4.17480   4.17869   4.22044   4.23123   4.24462
  Beta virt. eigenvalues --    4.25289   4.30039   4.31362   4.37392   4.39257
  Beta virt. eigenvalues --    4.41593   4.42941   4.44409   4.45612   4.50972
  Beta virt. eigenvalues --    4.51387   4.53479   4.56719   4.63088   4.67939
  Beta virt. eigenvalues --    4.68732   4.71226   4.82444   4.82554   4.92315
  Beta virt. eigenvalues --    4.94976   4.95543   4.98658   5.04374   5.05779
  Beta virt. eigenvalues --    5.08118   5.08772   5.12695   5.16638   5.23336
  Beta virt. eigenvalues --    5.24253   5.28875   5.30124   5.30826   5.32129
  Beta virt. eigenvalues --    5.39822   5.42351   5.46274   5.51146   5.52115
  Beta virt. eigenvalues --    5.52673   5.54595   5.58638   5.61535   5.65173
  Beta virt. eigenvalues --    5.66568   5.78648   5.80807   5.91882   5.94511
  Beta virt. eigenvalues --    5.96411   6.00099   6.08212   6.11473   6.12519
  Beta virt. eigenvalues --    6.22721   6.26239   6.68016   6.87350   7.03614
  Beta virt. eigenvalues --    7.11586   7.20849   7.49812  11.01879  11.36780
  Beta virt. eigenvalues --   12.89230  13.49375  14.32842
          Condensed to atoms (all electrons):
               1          2          3          4          5          6
     1  C    4.771953   0.345936   0.360800   0.430546   0.211742  -0.037385
     2  C    0.345936   4.834050  -0.035281  -0.043710  -0.025370  -0.003002
     3  C    0.360800  -0.035281   4.806610  -0.039382   0.218325   0.345922
     4  H    0.430546  -0.043710  -0.039382   0.550572  -0.021543   0.001997
     5  O    0.211742  -0.025370   0.218325  -0.021543   8.005259  -0.024501
     6  C   -0.037385  -0.003002   0.345922   0.001997  -0.024501   4.827963
     7  H   -0.037813   0.002292   0.421829  -0.002250  -0.020418  -0.043211
     8  H   -0.038775   0.396508  -0.001455   0.001115   0.004680  -0.000935
     9  H   -0.034025   0.410673   0.007687  -0.006844  -0.003667   0.000144
    10  H   -0.035429   0.408768  -0.001998   0.005751   0.004148  -0.003963
    11  H   -0.002961  -0.003258  -0.035235   0.000162   0.003739   0.408672
    12  H   -0.000564  -0.000945  -0.037147   0.000616   0.004479   0.398025
    13  H    0.007769   0.000089  -0.034941  -0.000347  -0.003669   0.411746
    14  Cl  -0.005570  -0.000241  -0.004878   0.003077  -0.000400  -0.002395
               7          8          9         10         11         12
     1  C   -0.037813  -0.038775  -0.034025  -0.035429  -0.002961  -0.000564
     2  C    0.002292   0.396508   0.410673   0.408768  -0.003258  -0.000945
     3  C    0.421829  -0.001455   0.007687  -0.001998  -0.035235  -0.037147
     4  H   -0.002250   0.001115  -0.006844   0.005751   0.000162   0.000616
     5  O   -0.020418   0.004680  -0.003667   0.004148   0.003739   0.004479
     6  C   -0.043211  -0.000935   0.000144  -0.003963   0.408672   0.398025
     7  H    0.550525   0.000461  -0.000335   0.000175   0.005622  -0.000251
     8  H    0.000461   0.596015  -0.030289  -0.026585   0.000832   0.000127
     9  H   -0.000335  -0.030289   0.576690  -0.029560  -0.000262  -0.000094
    10  H    0.000175  -0.026585  -0.029560   0.574779   0.001404   0.000896
    11  H    0.005622   0.000832  -0.000262   0.001404   0.576888  -0.026671
    12  H   -0.000251   0.000127  -0.000094   0.000896  -0.026671   0.589353
    13  H   -0.006542  -0.000099   0.000094  -0.000267  -0.030185  -0.030012
    14  Cl   0.003453   0.000830  -0.000011   0.000003   0.000068   0.002754
              13         14
     1  C    0.007769  -0.005570
     2  C    0.000089  -0.000241
     3  C   -0.034941  -0.004878
     4  H   -0.000347   0.003077
     5  O   -0.003669  -0.000400
     6  C    0.411746  -0.002395
     7  H   -0.006542   0.003453
     8  H   -0.000099   0.000830
     9  H    0.000094  -0.000011
    10  H   -0.000267   0.000003
    11  H   -0.030185   0.000068
    12  H   -0.030012   0.002754
    13  H    0.575928   0.000120
    14  Cl   0.000120  17.044602
          Atomic-Atomic Spin Densities.
               1          2          3          4          5          6
     1  C   -0.000405  -0.000412   0.004693   0.001068  -0.002318  -0.000959
     2  C   -0.000412   0.000596  -0.000234   0.000071  -0.000039   0.000238
     3  C    0.004693  -0.000234   0.027182   0.000694  -0.007792  -0.002841
     4  H    0.001068   0.000071   0.000694  -0.000590  -0.000315   0.000004
     5  O   -0.002318  -0.000039  -0.007792  -0.000315   0.044553   0.000569
     6  C   -0.000959   0.000238  -0.002841   0.000004   0.000569   0.007251
     7  H    0.002137  -0.000114   0.014233   0.000103  -0.002281  -0.001165
     8  H    0.000250   0.000424   0.000026  -0.000130  -0.000059   0.000017
     9  H    0.000095   0.000018  -0.000013   0.000020   0.000053  -0.000010
    10  H    0.000103  -0.000070   0.000013  -0.000005  -0.000027  -0.000023
    11  H    0.000262  -0.000169   0.000538   0.000004  -0.000009  -0.000374
    12  H   -0.000069   0.000041   0.000539  -0.000003  -0.000031   0.000467
    13  H   -0.000055   0.000004   0.000174  -0.000000   0.000016   0.000082
    14  Cl  -0.004733   0.000793  -0.016771  -0.002116   0.001916   0.003645
               7          8          9         10         11         12
     1  C    0.002137   0.000250   0.000095   0.000103   0.000262  -0.000069
     2  C   -0.000114   0.000424   0.000018  -0.000070  -0.000169   0.000041
     3  C    0.014233   0.000026  -0.000013   0.000013   0.000538   0.000539
     4  H    0.000103  -0.000130   0.000020  -0.000005   0.000004  -0.000003
     5  O   -0.002281  -0.000059   0.000053  -0.000027  -0.000009  -0.000031
     6  C   -0.001165   0.000017  -0.000010  -0.000023  -0.000374   0.000467
     7  H    0.005464  -0.000017   0.000009   0.000002   0.000023  -0.000250
     8  H   -0.000017  -0.000600   0.000026   0.000001   0.000007  -0.000019
     9  H    0.000009   0.000026  -0.000321   0.000049   0.000012  -0.000001
    10  H    0.000002   0.000001   0.000049  -0.000087   0.000038  -0.000003
    11  H    0.000023   0.000007   0.000012   0.000038   0.000911  -0.000124
    12  H   -0.000250  -0.000019  -0.000001  -0.000003  -0.000124  -0.000749
    13  H    0.000030  -0.000000  -0.000001   0.000003   0.000077  -0.000044
    14  Cl  -0.022336  -0.000295  -0.000014  -0.000026  -0.000240  -0.000728
              13         14
     1  C   -0.000055  -0.004733
     2  C    0.000004   0.000793
     3  C    0.000174  -0.016771
     4  H   -0.000000  -0.002116
     5  O    0.000016   0.001916
     6  C    0.000082   0.003645
     7  H    0.000030  -0.022336
     8  H   -0.000000  -0.000295
     9  H   -0.000001  -0.000014
    10  H    0.000003  -0.000026
    11  H    0.000077  -0.000240
    12  H   -0.000044  -0.000728
    13  H   -0.000656   0.000001
    14  Cl   0.000001   0.984749
 Mulliken charges and spin densities:
               1          2
     1  C    0.063775  -0.000344
     2  C   -0.286508   0.001147
     3  C    0.029145   0.020439
     4  H    0.120240  -0.001195
     5  O   -0.352805   0.034236
     6  C   -0.279079   0.006902
     7  H    0.126464  -0.004163
     8  H    0.097569  -0.000369
     9  H    0.109798  -0.000079
    10  H    0.101876  -0.000030
    11  H    0.101186   0.000956
    12  H    0.099435  -0.000974
    13  H    0.110316  -0.000369
    14  Cl  -0.041412   0.943845
 Sum of Mulliken charges =  -0.00000   1.00000
 Mulliken charges and spin densities with hydrogens summed into heavy atoms:
               1          2
     1  C    0.184014  -0.001539
     2  C    0.022735   0.000668
     3  C    0.155609   0.016276
     5  O   -0.352805   0.034236
     6  C    0.031859   0.006514
    14  Cl  -0.041412   0.943845
 APT charges:
               1
     1  C    0.305115
     2  C    0.035080
     3  C    0.429681
     4  H   -0.027973
     5  O   -0.663580
     6  C    0.005283
     7  H   -0.166368
     8  H   -0.004583
     9  H   -0.012226
    10  H    0.005999
    11  H    0.000738
    12  H    0.002975
    13  H   -0.009369
    14  Cl   0.099228
 Sum of APT charges =  -0.00000
 APT charges with hydrogens summed into heavy atoms:
               1
     1  C    0.277142
     2  C    0.024270
     3  C    0.263313
     5  O   -0.663580
     6  C   -0.000373
    14  Cl   0.099228
 Electronic spatial extent (au):  <R**2>=            978.6561
 Charge=             -0.0000 electrons
 Dipole moment (field-independent basis, Debye):
    X=              0.4363    Y=             -0.2702    Z=             -1.7005  Tot=              1.7763
 Quadrupole moment (field-independent basis, Debye-Ang):
   XX=            -45.8139   YY=            -41.7189   ZZ=            -47.0966
   XY=              0.7576   XZ=              3.1737   YZ=             -0.5219
 Traceless Quadrupole moment (field-independent basis, Debye-Ang):
   XX=             -0.9375   YY=              3.1575   ZZ=             -2.2201
   XY=              0.7576   XZ=              3.1737   YZ=             -0.5219
 Octapole moment (field-independent basis, Debye-Ang**2):
  XXX=             13.7322  YYY=              0.2645  ZZZ=             -0.3409  XYY=             -1.2272
  XXY=             -4.8926  XXZ=             -6.7559  XZZ=              5.7897  YZZ=             -0.8553
  YYZ=              2.6693  XYZ=              1.8721
 Hexadecapole moment (field-independent basis, Debye-Ang**3):
 XXXX=           -734.0696 YYYY=           -321.0744 ZZZZ=           -181.3538 XXXY=            -10.7921
 XXXZ=             -6.0064 YYYX=             -2.7404 YYYZ=              2.4262 ZZZX=             -1.1466
 ZZZY=              0.5006 XXYY=           -180.1164 XXZZ=           -164.7274 YYZZ=            -82.4619
 XXYZ=             -1.7078 YYXZ=             -4.3332 ZZXY=             -0.2800
 N-N= 2.815240149537D+02 E-N=-2.198239423529D+03  KE= 6.901914448307D+02
  Exact polarizability:     103.297      -3.425      66.359      -3.723       0.514      54.331
 Approx polarizability:      82.499      -1.566      71.425      -5.501       1.525      64.961
                          Isotropic Fermi Contact Couplings
        Atom                 a.u.       MegaHertz       Gauss      10(-4) cm-1
     1  C(13)              0.00068       0.76392       0.27258       0.25482
     2  C(13)              0.00061       0.68096       0.24298       0.22714
     3  C(13)              0.02323      26.11297       9.31776       8.71035
     4  H(1)               0.00012       0.55605       0.19841       0.18548
     5  O(17)              0.00197      -1.19542      -0.42655      -0.39875
     6  C(13)              0.00262       2.94113       1.04947       0.98105
     7  H(1)               0.01092      48.83003      17.42377      16.28795
     8  H(1)              -0.00006      -0.27789      -0.09916      -0.09269
     9  H(1)              -0.00004      -0.18137      -0.06472      -0.06050
    10  H(1)              -0.00004      -0.20048      -0.07154      -0.06687
    11  H(1)               0.00055       2.44144       0.87117       0.81438
    12  H(1)              -0.00022      -0.97609      -0.34829      -0.32559
    13  H(1)              -0.00025      -1.09594      -0.39106      -0.36557
    14  Cl(35)             0.14907      65.35998      23.32207      21.80174
 --------------------------------------------------------
       Center         ----  Spin Dipole Couplings  ----
                      3XX-RR        3YY-RR        3ZZ-RR
 --------------------------------------------------------
     1   Atom        0.017118     -0.004913     -0.012205
     2   Atom        0.001636     -0.001054     -0.000582
     3   Atom        0.065496     -0.028458     -0.037038
     4   Atom        0.003917      0.001692     -0.005610
     5   Atom        0.275415     -0.134921     -0.140494
     6   Atom       -0.005144      0.000411      0.004733
     7   Atom        0.021709     -0.010665     -0.011044
     8   Atom        0.001721     -0.000947     -0.000774
     9   Atom        0.001291     -0.000150     -0.001141
    10   Atom        0.001905     -0.001512     -0.000393
    11   Atom        0.002191     -0.001361     -0.000829
    12   Atom        0.000969     -0.000377     -0.000592
    13   Atom       -0.000358      0.002638     -0.002280
    14   Atom        4.229199     -2.095994     -2.133205
 --------------------------------------------------------
                        XY            XZ            YZ
 --------------------------------------------------------
     1   Atom        0.008080     -0.000781      0.002139
     2   Atom        0.002654      0.002435      0.002811
     3   Atom       -0.031520      0.029388     -0.008199
     4   Atom        0.004725     -0.003426     -0.002891
     5   Atom       -0.030066      0.091261      0.003065
     6   Atom       -0.005918      0.004631     -0.012735
     7   Atom       -0.004809      0.002121      0.011164
     8   Atom        0.001806      0.001661      0.001442
     9   Atom        0.001572      0.000319      0.000506
    10   Atom        0.000503      0.001585      0.000456
    11   Atom       -0.001101      0.001974     -0.001318
    12   Atom       -0.004078      0.002157     -0.003824
    13   Atom       -0.002827      0.000327     -0.000667
    14   Atom       -2.078756     -2.017889      0.604111
 --------------------------------------------------------


 ---------------------------------------------------------------------------------
              Anisotropic Spin Dipole Couplings in Principal Axis System
 ---------------------------------------------------------------------------------

       Atom             a.u.   MegaHertz   Gauss  10(-4) cm-1        Axes

              Baa    -0.0131    -1.762    -0.629    -0.588  0.1196 -0.3585  0.9258
[...]
    X6        1.40582   0.00000   0.00000  -0.00413  -0.00182   1.40399
    Y6        3.21943  -0.00001   0.00000  -0.00194  -0.00099   3.21844
    Z6        1.26893  -0.00000   0.00000  -0.00046  -0.00046   1.26847
    X7       -1.06645  -0.00000   0.00000   0.00028   0.00051  -1.06593
    Y7        1.61008  -0.00001   0.00000  -0.00366  -0.00188   1.60819
    Z7       -1.61027  -0.00001   0.00000  -0.00341  -0.00210  -1.61237
    X8        2.20015  -0.00000   0.00000   0.00047   0.00018   2.20033
    Y8       -3.32575  -0.00000   0.00000  -0.00302  -0.00223  -3.32799
    Z8        2.92199  -0.00000   0.00000  -0.00210  -0.00149   2.92050
    X9        4.50246  -0.00000   0.00000   0.00424   0.00263   4.50510
    Y9       -3.92419   0.00000   0.00000   0.00201   0.00129  -3.92290
    Z9        0.58872  -0.00000   0.00000   0.00038   0.00007   0.58879
   X10        4.52010   0.00000   0.00000  -0.00190  -0.00133   4.51877
   Y10       -1.02174  -0.00000   0.00000   0.00083   0.00034  -1.02140
   Z10        2.21655   0.00000   0.00000   0.00259   0.00186   2.21840
   X11        3.19056  -0.00000   0.00000  -0.00484  -0.00235   3.18821
   Y11        2.80053  -0.00000   0.00000  -0.00060  -0.00042   2.80011
   Z11        2.19062   0.00000   0.00000   0.00153   0.00082   2.19143
   X12       -0.07136  -0.00000   0.00000  -0.00593  -0.00294  -0.07430
   Y12        3.35196  -0.00000   0.00000  -0.00361  -0.00170   3.35026
   Z12        2.69706   0.00000   0.00000  -0.00218  -0.00156   2.69550
   X13        1.57150  -0.00000   0.00000  -0.00468  -0.00185   1.56965
   Y13        5.05076  -0.00000   0.00000  -0.00160  -0.00087   5.04990
   Z13        0.34502  -0.00000   0.00000   0.00012  -0.00022   0.34480
   X14       -4.60501   0.00001   0.00000   0.00121   0.00115  -4.60386
   Y14       -0.48079   0.00001   0.00000   0.00631   0.01014  -0.47065
   Z14        0.11494   0.00001   0.00000   0.00351   0.00667   0.12161
         Item               Value     Threshold  Converged?
 Maximum Force            0.000050     0.000450     YES
 RMS     Force            0.000012     0.000300     YES
 Maximum Displacement     0.010140     0.001800     NO 
 RMS     Displacement     0.002313     0.001200     NO 
 Predicted change in Energy=-1.409011D-07
 GradGradGradGradGradGradGradGradGradGradGradGradGradGradGradGradGradGrad

 Leave Link  103 at Thu Oct 10 23:33:46 2024, MaxMem=  2684354560 cpu:               0.1 elap:               0.0
 (Enter /gpfs/fs1/soft/bebop/software/custom-built/gaussian/16-c.02/g16/l9999.exe)

 ----------------------------------------------------------------------

 Electric dipole moment (input orientation):
 (Debye = 10**-18 statcoulomb cm , SI units = C m)
                  (au)            (Debye)         (10**-30 SI)
   Tot        0.609744D+00      0.154982D+01      0.516963D+01
   x          0.491140D-01      0.124835D+00      0.416406D+00
   y         -0.672814D-01     -0.171012D+00     -0.570435D+00
   z          0.604027D+00      0.153528D+01      0.512116D+01

 Dipole polarizability, Alpha (input orientation).
 (esu units = cm**3 , SI units = C**2 m**2 J**-1)
 Alpha(0;0):
               (au)            (10**-24 esu)      (10**-40 SI)
   iso        0.746624D+02      0.110638D+02      0.123102D+02
   aniso      0.450655D+02      0.667802D+01      0.743030D+01
   xx         0.103297D+03      0.153070D+02      0.170313D+02
   yx         0.342477D+01      0.507499D+00      0.564668D+00
   yy         0.663589D+02      0.983337D+01      0.109411D+02
   zx        -0.372282D+01     -0.551664D+00     -0.613809D+00
   zy        -0.513673D+00     -0.761185D-01     -0.846933D-01
   zz         0.543315D+02      0.805109D+01      0.895805D+01

 ----------------------------------------------------------------------

 Dipole orientation:
     6          1.60860361         -1.45381718         -0.27821920
     6          3.16985312         -2.28033653          1.93628497
     6          0.77500362          1.15882866         -0.70751877
     1          0.45540551         -2.92939435         -1.11408784
     8          2.81269143          0.11882310         -2.14599416
     6          1.31339841          3.34603749          1.01502728
     1         -0.92607676          1.41778442         -1.85873248
     1          1.94277099         -2.97316280          3.43879116
     1          4.42284671         -3.81512117          1.37887561
     1          4.32226438         -0.75073140          2.67259478
     1          3.01620941          3.03936724          2.11805068
     1         -0.27340322          3.62874275          2.29615816
     1          1.56113863          5.06495771         -0.08895382
    17         -4.60140141         -0.48572335         -0.20401150

 Electric dipole moment (dipole orientation):
 (Debye = 10**-18 statcoulomb cm , SI units = C m)
                  (au)            (Debye)         (10**-30 SI)
   Tot        0.609744D+00      0.154982D+01      0.516963D+01
   x          0.000000D+00      0.000000D+00      0.000000D+00
   y          0.000000D+00      0.000000D+00      0.000000D+00
   z          0.609744D+00      0.154982D+01      0.516963D+01

 Dipole polarizability, Alpha (dipole orientation).
 (esu units = cm**3 , SI units = C**2 m**2 J**-1)
 Alpha(0;0):
               (au)            (10**-24 esu)      (10**-40 SI)
   iso        0.746624D+02      0.110638D+02      0.123102D+02
   aniso      0.450655D+02      0.667802D+01      0.743030D+01
   xx         0.103607D+03      0.153530D+02      0.170825D+02
   yx         0.329684D+01      0.488542D+00      0.543576D+00
   yy         0.661272D+02      0.979904D+01      0.109029D+02
   zx        -0.108706D+00     -0.161086D-01     -0.179232D-01
   zy        -0.157798D+01     -0.233832D+00     -0.260174D+00
   zz         0.542529D+02      0.803945D+01      0.894509D+01

 ----------------------------------------------------------------------

 Test job not archived.
 1\1\GINC-CSED-0003\Freq\UB2PLYPD3-FC\CC-pVTZ\C4H8Cl1O1(2)\AC.NDEWEY\10
 -Oct-2024\0\\#P b2plypd3/cc-pvtz # SCF=(xqc) # Freq=() # IOp(7/33=1) #
  int=ultrafine\\comment:\\0,2\C,0.833168,-0.744575,-0.299303\C,1.74909
 2,-1.304894,0.746766\C,0.381358,0.652619,-0.336261\H,0.185796,-1.47455
 8,-0.774485\O,1.39237,0.194447,-1.237915\C,0.743926,1.703651,0.67149\H
 ,-0.564339,0.852016,-0.852117\H,1.164271,-1.759912,1.546252\H,2.382601
 ,-2.076591,0.311537\H,2.391933,-0.540684,1.172946\H,1.688369,1.481977,
 1.159224\H,-0.037761,1.773781,1.427223\H,0.831602,2.672749,0.182576\Cl
 ,-2.436864,-0.254421,0.060824\\Version=ES64L-G16RevC.01\State=2-A\HF=-
 691.9942031\MP2=-692.3518169\PUHF=-691.9969807\PMP2-0=-692.3519475\S2=
 0.755799\S2-1=0.746202\S2A=0.750018\RMSD=5.426e-09\RMSF=1.199e-05\Zero
 Point=0.1136898\Thermal=0.1211572\ETot=-692.2306597\HTot=-692.2297155\
 GTot=-692.2717114\Dipole=0.049114,-0.0672814,0.6040274\DipoleDeriv=0.2
 547794,0.0253385,0.0418899,-0.2107362,0.3162812,-0.074815,0.2424033,-0
 .1622126,0.3442846,0.0767092,0.0361415,-0.1102035,0.0392362,0.026054,0
 .0391416,-0.038381,0.0185844,0.0024768,0.7899484,0.0887214,-0.0584515,
 -0.2627078,0.2080121,0.1039768,0.1933719,0.2224882,0.2910816,-0.011476
 2,-0.0520655,-0.0589468,-0.0412497,-0.0739786,-0.0028516,-0.1269203,-0
 .0304026,0.0015366,-0.9107313,-0.0814926,0.2735851,0.1015402,-0.421578
 2,0.0656237,0.1481903,0.0535706,-0.658432,-0.0301271,-0.0371122,-0.050
 1073,0.1644349,0.0435967,-0.1040178,0.041155,-0.0395232,0.0023783,-0.5
 160711,-0.0605945,-0.0201739,0.1093946,-0.0066009,-0.032621,-0.2734492
 ,-0.0528482,0.0235694,-0.0202089,-0.0409399,0.0797797,0.0073414,0.0359
 855,0.0504492,0.0040296,0.0772145,-0.0295258,-0.0197667,0.1055188,0.00
 74608,0.0957506,-0.0375339,-0.0308305,0.0342381,-0.0484167,0.0206234,0
 .0168189,-0.0518226,-0.0526555,-0.0946185,-0.0251487,-0.0565412,-0.026
 9494,-0.0166299,0.0263265,-0.0676683,0.0158545,-0.0796532,0.0093475,0.
 0456485,0.0171036,-0.0754056,-0.0140367,0.0242346,-0.0226801,0.0115415
 ,0.092246,-0.0479194,0.0402123,0.0045294,0.0322817,-0.0474468,-0.00860
 61,0.0681074,-0.0281461,-0.0097157,-0.0240159,-0.1112049,0.0344567,0.0
 039999,0.0710972,0.0149906,0.3923665,0.0690573,-0.055054,0.154202,-0.0
 397453,-0.013604,-0.1585643,-0.0314381,-0.0549384\Polar=103.2968432,3.
 4247711,66.3588603,-3.722816,-0.5136733,54.331451\PG=C01 [X(C4H8Cl1O1)
 ]\NImag=1\\0.43523882,0.04033799,0.64603740,0.17090231,-0.00739361,0.4
 0817914,-0.14358191,0.03193259,-0.07608623,0.55027732,0.02698016,-0.09
 742260,0.02797429,0.03059194,0.56775998,-0.06961005,0.02426200,-0.1408
 9695,-0.02357066,0.02744576,0.53005620,-0.04057197,0.08752571,-0.05010
 963,-0.01492178,0.01341816,0.01562223,0.48351047,0.05078394,-0.2567873
 3,0.01659145,0.00651262,-0.00813756,-0.00067714,-0.08198376,0.52918443
 ,-0.02969041,-0.02387654,-0.02507071,-0.01083672,0.01861291,0.00806220
 ,0.11533167,0.10379254,0.39669138,-0.14385157,-0.10171874,-0.08196664,
 -0.00880427,-0.01247839,-0.00996343,0.01112978,0.01133138,0.01250883,0
 .15175506,-0.10481435,-0.16615907,-0.08514792,0.00970913,0.00971229,0.
 00644301,-0.01738029,-0.01319543,-0.00801603,0.11618566,0.18819515,-0.
 08268427,-0.09099958,-0.10966098,-0.01281362,-0.01588024,-0.00707406,-
 0.00565809,-0.00093581,-0.00899209,0.08498152,0.08031639,0.11268246,-0
 .07885878,-0.07136855,0.03830580,0.01809012,0.00670219,-0.01287465,-0.
 13896334,0.04384436,0.06488757,-0.00843927,-0.00571209,0.01734350,0.22
 253397,-0.03472153,-0.10013417,0.04699081,-0.01151929,-0.01050049,0.02
 052531,0.00137250,-0.03331227,-0.02627917,-0.01761171,-0.01683406,0.02
 586895,0.01264302,0.16574962,0.02748821,0.08127638,-0.11480083,0.01823
 535,0.01417163,-0.02283064,0.07466866,-0.05480914,-0.11375759,-0.00182
 053,0.00361273,0.01191893,-0.13397771,-0.03760360,0.24750862,-0.003340
 35,-0.00227393,0.00308461,0.00157573,0.00096689,-0.00039381,-0.0897874
 9,-0.03550766,-0.03687963,0.00040725,0.00050849,0.00012978,0.00441993,
 0.02546871,0.02167035,0.58474637,-0.00732038,-0.01877714,-0.02072170,-
 0.00031950,0.00093704,0.00063881,-0.03347621,-0.14343645,-0.06767241,0
 .00255795,-0.00171773,-0.00143759,0.00715762,-0.00130129,-0.00181369,-
 0.01593589,0.52523856,0.01007102,0.00963288,0.00811775,0.00034248,-0.0
 0051553,0.00071462,-0.03323795,-0.06158232,-0.13368654,-0.00315862,0.0
 0240302,0.00168602,0.00173044,-0.02242807,-0.02018971,-0.00215134,-0.0
 3963642,0.53203327,-0.00499674,0.00089126,0.00948638,0.00187563,-0.000
 64619,-0.00225739,-0.19507470,0.01557352,-0.10658160,-0.00086850,0.001
 91335,0.00080254,-0.02834335,0.02235496,-0.00114014,-0.00808500,0.0066
 9752,-0.00624717,0.23276470,0.02284513,-0.00084849,0.01415821,0.001867
 64,-0.00253714,-0.00409950,0.04316048,-0.05937144,0.02249582,-0.001506
 10,0.00060568,0.00076216,0.00340719,-0.00114990,-0.00387887,-0.0195797
 3,0.00385293,-0.01336577,-0.04786458,0.06213855,-0.00654360,-0.0027401
 1,-0.00865737,-0.00067175,0.00154967,0.00176786,-0.11626847,0.02311279
 ,-0.10743131,0.00075123,-0.00014666,0.00102354,0.02726502,-0.00903113,
 0.01074588,-0.01895955,0.00432192,-0.00850223,0.11071743,-0.01624955,0
 .11452368,0.01310612,0.00849704,-0.01403488,-0.12614526,-0.06074945,0.
 10422911,0.00191297,-0.00069092,0.00106306,0.00013999,-0.00092546,0.00
 082475,-0.00211834,0.00365430,-0.00489509,-0.00039296,0.00001635,-0.00
 011357,-0.00039557,-0.00022451,-0.00002049,0.13380351,-0.00811031,-0.0
 0687775,0.00811145,-0.06037442,-0.09163039,0.07987368,-0.00185379,0.00
 056166,0.00017825,0.00027010,0.00028482,-0.00008642,0.00338916,-0.0011
 7082,0.00289804,0.00003302,-0.00018167,-0.00033565,0.00032673,0.000067
 31,0.00003538,0.06482550,0.09730834,0.01500140,0.00896342,-0.01526053,
 0.10383637,0.07989669,-0.18908993,0.00144449,-0.00010472,0.00021711,-0
 .00053501,-0.00082514,0.00044375,-0.00423815,0.00215883,-0.00275701,-0
 .00030013,0.00021688,-0.00014329,-0.00055594,0.00004813,-0.00001769,-0
 .11422257,-0.09078291,0.20522185,-0.01371815,0.01737407,0.00829157,-0.
 13559314,0.10801835,0.06273250,-0.00307808,-0.00199981,-0.00204813,0.0
 0031242,-0.00055995,0.00013354,0.00219450,-0.00071630,-0.00079417,-0.0
 0015866,-0.00049540,-0.00001519,0.00044041,0.00106098,-0.00048069,-0.0
 1042670,0.01249246,0.00652606,0.14679823,0.00754426,-0.01076119,-0.003
 96478,0.10789275,-0.18050176,-0.07858182,0.00246289,0.00063417,0.00094
 241,-0.00029907,0.00055082,0.00053757,-0.00110215,0.00061961,-0.000194
 37,-0.00011439,0.00021574,0.00011172,-0.00036471,-0.00053031,0.0003934
 9,-0.00886739,0.01084447,0.00560776,-0.12133149,0.19447657,-0.01601000
 ,0.02160675,0.00958041,0.06351043,-0.07913984,-0.09170595,-0.00514576,
 0.00121687,-0.00288990,0.00088384,-0.00060106,0.00071255,0.00183820,-0
 .00275763,0.00199813,-0.00017938,-0.00037216,-0.00016156,0.00049112,0.
 00136882,-0.00055452,0.01289040,-0.01797153,-0.00989986,-0.06638859,0.
 08406964,0.09834495,-0.01463242,-0.01678199,-0.00710468,-0.14137494,-0
 .11262144,-0.06308390,-0.00042312,-0.00137422,-0.00027036,-0.00123496,
 0.00225567,-0.00291390,0.00208811,0.00079179,0.00139265,-0.00046584,-0
 .00029799,-0.00013280,0.00032412,0.00018553,0.00022195,-0.00991885,-0.
 01098968,-0.00739613,0.01249838,0.01397282,0.00746123,0.15199489,0.008
 33084,0.01079252,0.00572836,-0.11577255,-0.18670366,-0.07619910,0.0002
 4221,0.00027815,-0.00043723,0.00188937,-0.00049144,0.00225342,-0.00059
 582,0.00116925,-0.00086844,0.00032080,-0.00125572,0.00001548,-0.000030
 85,0.00010326,-0.00034549,-0.00561613,-0.00886186,-0.00537525,-0.01406
 320,-0.01582596,-0.00752948,0.12383753,0.20314181,-0.01490428,-0.01802
 395,-0.01120492,-0.06183073,-0.07414718,-0.08806897,-0.00090367,-0.000
 53548,0.00123689,-0.00260520,0.00243796,-0.00245789,0.00228214,-0.0009
 8821,0.00140328,0.00018869,0.00004220,-0.00037845,0.00034212,-0.000002
 48,0.00007938,0.01412767,0.01786115,0.01129017,-0.00830192,-0.00913707
 ,-0.00579774,0.07114084,0.08254747,0.09274079,-0.00062428,0.00086718,-
 0.00045545,-0.00073533,0.00061890,-0.00000398,-0.00875056,0.00135069,-
 0.00232098,0.00018533,-0.00013410,-0.00005014,0.00173110,-0.00036371,0
 .00055778,-0.25462000,0.04985654,-0.10683564,0.00087673,-0.00114915,-0
 .00086809,0.00007621,-0.00001552,0.00001455,0.00020653,0.00014518,0.00
 027470,0.00074092,0.00145511,0.00018683,0.27528519,-0.00095776,0.00078
 295,0.00051127,0.00003627,-0.00097541,-0.00010517,-0.02228555,0.004663
 09,-0.01050928,0.00003185,0.00011277,0.00043316,0.00068523,0.00169375,
 0.00139673,0.05263217,-0.05983372,0.02645147,-0.00223714,-0.00295920,-
 0.00356702,-0.00000013,0.00002196,0.00003307,0.00019513,0.00029997,0.0
 0007056,0.00114554,-0.00246235,0.00012252,-0.05657036,0.06528030,-0.00
 114580,0.00052298,0.00155870,0.00004510,-0.00001154,-0.00043542,-0.019
 44316,0.00334494,-0.01176032,0.00005958,0.00014841,0.00005016,0.000967
 06,0.00236033,0.00114843,-0.10519626,0.02582197,-0.10105490,-0.0017205
 2,-0.00339204,-0.00222025,0.00010337,0.00025693,-0.00003553,0.00019064
 ,0.00010880,0.00014854,0.00028229,0.00016395,0.00093549,0.11838625,-0.
 02689786,0.10672082,-0.00005676,0.00057506,0.00102305,-0.00035855,-0.0
 0015942,-0.00027981,0.00623540,-0.00001894,-0.00622031,-0.00015984,0.0
 0003011,-0.00002709,0.00147422,-0.00129437,-0.00182183,-0.18654092,0.0
 1119161,0.13236067,-0.00010297,0.00054462,0.00057580,0.00009020,0.0001
 8090,0.00002660,0.00007159,0.00009634,-0.00002339,0.00008978,0.0000639
 2,0.00022234,-0.01782724,0.00065980,0.02018507,0.19905969,0.00117873,0
 .00165247,0.00039531,-0.00003103,-0.00018637,0.00017963,0.02024963,-0.
 00173674,-0.01505886,-0.00021028,0.00002999,0.00004928,-0.00166079,-0.
 00460539,-0.00486341,0.01029807,-0.04674112,-0.01069372,-0.00092610,0.
 00063237,0.00045869,0.00006186,-0.00023691,0.00007471,-0.00002327,-0.0
 0003347,0.00006324,0.00000848,0.00000917,-0.00013314,0.00461002,-0.001
 66966,-0.00538872,-0.01196746,0.04967403,0.00067464,0.00031352,0.00015
 819,-0.00014257,-0.00024350,-0.00017283,0.01818819,0.00006340,-0.01436
 242,-0.00013750,-0.00018221,0.00007964,-0.00221284,-0.00372449,-0.0022
 6869,0.13126748,-0.01102204,-0.17480377,-0.00119561,0.00047941,0.00030
 730,0.00007159,0.00000103,0.00010697,0.00004684,0.00004200,0.00001353,
 0.00006185,-0.00001216,0.00001792,-0.01100439,0.00073374,0.01220859,-0
 .14629062,0.01471349,0.18921356,-0.00123043,0.00062132,-0.00095653,-0.
 00030232,0.00006708,0.00009549,-0.00143277,-0.00846593,0.00420960,0.00
 034325,-0.00030473,-0.00008579,0.00076959,0.00052355,-0.00085045,-0.04
 931047,-0.01823916,0.00858468,0.00017141,0.00010480,0.00040876,0.00005
 866,0.00006870,0.00004380,0.00018819,0.00008137,0.00014949,0.00039813,
 -0.00008412,0.00016077,0.00338923,0.02612616,-0.01308963,-0.00178837,-
 0.02189972,0.01017099,0.04871356,-0.00381151,-0.00113194,-0.00205081,-
 0.00027426,0.00041157,-0.00013224,-0.00175874,-0.02430155,0.00948619,0
 .00103073,-0.00056574,-0.00057820,0.00129880,0.00203921,-0.00028833,-0
 .01796685,-0.25557443,0.10965753,0.00027195,0.00099715,-0.00027861,-0.
 00003055,-0.00002816,0.00000530,0.00006623,-0.00000952,0.00003326,-0.0
 0005718,0.00008176,0.00003439,-0.00064826,-0.00534303,0.00254239,0.000
 14326,0.00306819,-0.00147238,0.02147177,0.28043795,-0.00273501,-0.0037
 3331,-0.00257674,-0.00033651,0.00016801,-0.00013976,-0.00198377,-0.025
 11230,0.01032505,0.00093652,-0.00084935,-0.00045259,-0.00006382,0.0030
 2347,0.00175758,0.00893367,0.11046803,-0.10343381,0.00089769,0.0010623
 3,0.00077475,0.00001058,-0.00007129,0.00002413,0.00013774,0.00006429,0
 .00016224,0.00026530,0.00008975,0.00011891,0.00219200,0.01173928,-0.00
 703194,0.00033702,0.02024433,-0.01043445,-0.00879556,-0.11696912,0.110
 79822,-0.00288160,0.00352098,-0.00037968,-0.00000131,-0.00070880,-0.00
 064164,-0.00978481,0.00064473,-0.00315259,-0.00091466,-0.00077143,0.00
 001728,0.00342154,-0.00058194,0.00128693,0.00155242,-0.00139307,-0.001
 19701,0.00141383,-0.00285231,0.00387246,0.00021000,-0.00024287,0.00035
 466,0.00026449,-0.00011642,0.00024770,-0.00008420,0.00002289,-0.000105
 60,0.00006615,0.00053880,0.00037601,-0.00018626,0.00031185,0.00050194,
 0.00003234,0.00026460,0.00020416,0.00689205,0.00173480,-0.00036566,-0.
 00118232,-0.00025192,-0.00022549,0.00042677,-0.00969323,0.00495727,-0.
 00365862,0.00052725,-0.00052804,-0.00030309,0.00131181,-0.00226305,0.0
 0096433,0.00115029,-0.00142499,0.00028537,0.00404029,-0.00100078,0.002
 48663,0.00004947,-0.00010099,0.00008323,-0.00001780,0.00002085,-0.0000
 5743,-0.00007487,0.00002509,-0.00007818,-0.00002253,0.00038859,0.00041
 948,-0.00004545,0.00014344,0.00031019,-0.00007111,-0.00008145,-0.00012
 412,0.00136299,0.00045522,-0.00081416,0.00018918,0.00053485,0.00031907
 ,0.00011886,-0.00018636,0.00749524,-0.00436508,0.00141825,0.00006540,0
 .00040685,0.00004056,-0.00125255,0.00188460,0.00012364,-0.00121449,0.0
 0116619,-0.00019740,-0.00303891,0.00061332,-0.00183901,-0.00003393,0.0
 0003190,-0.00010014,-0.00003020,0.00000036,0.00004918,0.00007567,-0.00
 003126,0.00008513,-0.00007344,-0.00041249,-0.00023238,-0.00006749,-0.0
 0004083,-0.00006354,-0.00004562,0.00001063,0.00010841,-0.00138460,0.00
 042776,0.00025882\\-0.00000330,0.00005041,-0.00000444,-0.00000369,-0.0
 0001212,-0.00000625,0.00000931,-0.00004816,0.00000287,-0.00001283,0.00
 000307,0.00000334,0.00000899,-0.00000489,-0.00000136,-0.00000496,0.000
 00664,0.00000176,0.00000208,0.00001010,0.00000797,0.00000049,0.0000040
 1,0.00000361,0.00000181,-0.00000082,0.00000224,-0.00000028,0.00000100,
 -0.00000047,0.00000257,0.00000061,-0.00000331,0.00000249,0.00000258,-0
 .00000018,0.00000254,0.00000037,0.00000147,-0.00000522,-0.00001281,-0.
 00000726\\\@


 "THE TIME HAS COME", THE WALRUS SAID,
 "TO TALK OF MANY THINGS,
 OF SHOES AND SHIPS AND SEALING WAX,
 OF CABBAGES AND KINGS,
 AND WHY THE SEA IS BOILING HOT,
 AND WHETHER PIGS HAVE WINGS."
 Job cpu time:       0 days  9 hours 48 minutes 49.2 seconds.
 Elapsed time:       0 days  1 hours 40 minutes  8.4 seconds.
 File lengths (MBytes):  RWF=  60780 Int=      0 D2E=      0 Chk=     12 Scr=      1
 Normal termination of Gaussian 16 at Thu Oct 10 23:33:52 2024.
