 Entering Gaussian System, Link 0=g16
 Input=run.inp
 Output=run.out
 Initial command:
 /gpfs/fs1/soft/bebop/software/custom-built/gaussian/16-c.02/g16/l1.exe "/scratch/Gau-1914289.inp" -scrdir="/scratch/"
 Default CPUs for threads: 0-35
 Default is to use a total of  36 processors:
                               36 via shared-memory
                                1 via Linda
 Entering Link 1 = /gpfs/fs1/soft/bebop/software/custom-built/gaussian/16-c.02/g16/l1.exe PID=   1914293.
  
 Copyright (c) 1988-2019, Gaussian, Inc.  All Rights Reserved.
  
 This is part of the Gaussian(R) 16 program.  It is based on
 the Gaussian(R) 09 system (copyright 2009, Gaussian, Inc.),
 the Gaussian(R) 03 system (copyright 2003, Gaussian, Inc.),
 the Gaussian(R) 98 system (copyright 1998, Gaussian, Inc.),
 the Gaussian(R) 94 system (copyright 1995, Gaussian, Inc.),
 the Gaussian 92(TM) system (copyright 1992, Gaussian, Inc.),
 the Gaussian 90(TM) system (copyright 1990, Gaussian, Inc.),
 the Gaussian 88(TM) system (copyright 1988, Gaussian, Inc.),
 the Gaussian 86(TM) system (copyright 1986, Carnegie Mellon
 University), and the Gaussian 82(TM) system (copyright 1983,
 Carnegie Mellon University). Gaussian is a federally registered
 trademark of Gaussian, Inc.
  
 This software contains proprietary and confidential information,
 including trade secrets, belonging to Gaussian, Inc.
  
 This software is provided under written license and may be
 used, copied, transmitted, or stored only in accord with that
 written license.
  
 The following legend is applicable only to US Government
 contracts under FAR:
  
                    RESTRICTED RIGHTS LEGEND
  
 Use, reproduction and disclosure by the US Government is
 subject to restrictions as set forth in subparagraphs (a)
 and (c) of the Commercial Computer Software - Restricted
 Rights clause in FAR 52.227-19.
  
 Gaussian, Inc.
 340 Quinnipiac St., Bldg. 40, Wallingford CT 06492
  
  
 ---------------------------------------------------------------
 Warning -- This program may not be used in any manner that
 competes with the business of Gaussian, Inc. or will provide
 assistance to any competitor of Gaussian, Inc.  The licensee
 of this program is prohibited from giving any competitor of
 Gaussian, Inc. access to this program.  By using this program,
 the user acknowledges that Gaussian, Inc. is engaged in the
 business of creating and licensing software in the field of
 computational chemistry and represents and warrants to the
 licensee that it is not a competitor of Gaussian, Inc. and that
 it will not use this program in any manner prohibited above.
 ---------------------------------------------------------------
  

 Cite this work as:
 Gaussian 16, Revision C.01,
 M. J. Frisch, G. W. Trucks, H. B. Schlegel, G. E. Scuseria, 
 M. A. Robb, J. R. Cheeseman, G. Scalmani, V. Barone, 
 G. A. Petersson, H. Nakatsuji, X. Li, M. Caricato, A. V. Marenich, 
 J. Bloino, B. G. Janesko, R. Gomperts, B. Mennucci, H. P. Hratchian, 
 J. V. Ortiz, A. F. Izmaylov, J. L. Sonnenberg, D. Williams-Young, 
 F. Ding, F. Lipparini, F. Egidi, J. Goings, B. Peng, A. Petrone, 
 T. Henderson, D. Ranasinghe, V. G. Zakrzewski, J. Gao, N. Rega, 
 G. Zheng, W. Liang, M. Hada, M. Ehara, K. Toyota, R. Fukuda, 
 J. Hasegawa, M. Ishida, T. Nakajima, Y. Honda, O. Kitao, H. Nakai, 
 T. Vreven, K. Throssell, J. A. Montgomery, Jr., J. E. Peralta, 
 F. Ogliaro, M. J. Bearpark, J. J. Heyd, E. N. Brothers, K. N. Kudin, 
 V. N. Staroverov, T. A. Keith, R. Kobayashi, J. Normand, 
 K. Raghavachari, A. P. Rendell, J. C. Burant, S. S. Iyengar, 
 J. Tomasi, M. Cossi, J. M. Millam, M. Klene, C. Adamo, R. Cammi, 
 J. W. Ochterski, R. L. Martin, K. Morokuma, O. Farkas, 
 J. B. Foresman, and D. J. Fox, Gaussian, Inc., Wallingford CT, 2019.
 
 ******************************************
 Gaussian 16:  ES64L-G16RevC.01  3-Jul-2019
                 8-Oct-2024 
 ******************************************
 %mem=20GB
 %NProcShared=6
 Will use up to    6 processors via shared memory.
 ----------------------------------------------------------------------
 #P b2plypd3/cc-pvtz # SCF=(xqc) # POpt=(CALCFC,TS,NOEIGEN,MAXCYCLES=60
 ) # int=ultrafine
 ----------------------------------------------------------------------
 1/5=1,6=60,10=4,11=1,38=1/1,3;
 2/12=2,17=6,18=5,29=3,40=1/2;
 3/5=16,6=1,11=9,25=1,30=1,71=2,74=-60,75=-5,140=1/1,2,3;
 4//1;
 5/5=2,8=3,13=1,38=5/2,8;
 8/6=3,8=1,10=1,19=11,30=-1/1;
 9/15=3,16=-3/6;
 11/6=1,8=1,15=11,17=12,24=-1,27=1,28=-2,29=300,32=6,42=3/1,2,10;
 10/6=2,21=1/2;
 8/6=4,8=1,10=1,19=11,30=-1/11,4;
 10/5=1,20=4/2;
 11/12=2,14=11,16=1,17=2,28=-2,42=3,76=2/2,10,12;
 6/7=2,8=2,9=2,10=2/1;
 7/10=1,12=2,25=1,44=2/1,2,3,16;
 1/5=1,6=60,10=4,11=1/3(2);
 2/29=3/2;
 99//99;
 2/29=3/2;
 3/5=16,6=1,11=9,25=1,30=1,71=1,74=-60,75=-5/1,2,3;
 4/5=5,16=3,69=1/1;
 5/5=2,8=3,13=1,38=5/2,8;
 8/6=4,10=1/1;
 9/15=2,16=-3/6;
 10/5=1/2;
 7/12=2/1,2,3,16;
 1/5=1,6=60,11=1/3(-8);
 2/29=3/2;
 6/7=2,8=2,9=2,10=2/1;
 99/9=10/99;
 Leave Link    1 at Tue Oct  8 14:43:52 2024, MaxMem=  2684354560 cpu:               0.9 elap:               0.1
 (Enter /gpfs/fs1/soft/bebop/software/custom-built/gaussian/16-c.02/g16/l101.exe)
 --------
 comment:
 --------
 Symbolic Z-matrix:
 Charge =  0 Multiplicity = 2
 C
 C                    1    R1
 C                    1    R2       2    A2
 H                    1    R3       2    A3       3    D3       0
 O                    3    R4       1    A4       2    D4       0
 C                    3    R5       1    A5       5    D5       0
 H                    3    R6       1    A6       5    D6       0
 H                    2    R7       1    A7       3    D7       0
 H                    2    R8       1    A8       8    D8       0
 H                    2    R9       1    A9       8    D9       0
 H                    6    R10      3    A10      1    D10      0
 H                    6    R11      3    A11      11   D11      0
 H                    6    R12      3    A12      11   D12      0
 X                    7    R13      3    A13      1    D13      0
 Cl                   7    R14      14   A14      3    D14      0
       Variables:
  R1                    1.49858                  
  R2                    1.49061                  
  R3                    1.0843                   
  R4                    1.43496                  
  R5                    1.49975                  
  R6                    1.08625                  
  R7                    1.0895                   
  R8                    1.08939                  
  R9                    1.08529                  
  R10                   1.08531                  
  R11                   1.08873                  
  R12                   1.0893                   
  R14                   2.41786                  
  A2                  123.42561                  
  A3                  114.63487                  
  A4                   58.52915                  
  A5                  123.9442                   
  A6                  116.94597                  
  A7                  109.70189                  
  A8                  109.61577                  
  A9                  112.08205                  
  A10                 111.99782                  
  A11                 109.83775                  
  A12                 109.46889                  
  A14                 104.82586                  
  D3                  205.81795                  
  D4                  105.39521                  
  D5                  255.49824                  
  D6                  101.04926                  
  D7                   93.74134                  
  D8                  118.61005                  
  D9                  238.71329                  
  D10                  24.50921                  
  D11                 238.66588                  
  D12                 119.9424                   
  D14                  97.66922                  
       Constants:
  R13                   1.                       
  A13                  90.                       
  D13                 166.2935                   
 
 ITRead=  0  0  0  0  0  0  0  0  0  0  0  0  0  0
 MicOpt= -1 -1 -1 -1 -1 -1 -1 -1 -1 -1 -1 -1 -1 -1
 NAtoms=     14 NQM=       14 NQMF=       0 NMMI=      0 NMMIF=      0
                NMic=       0 NMicF=      0.
                    Isotopes and Nuclear Properties:
 (Nuclear quadrupole moments (NQMom) in fm**2, nuclear magnetic moments (NMagM)
  in nuclear magnetons)

  Atom         1           2           3           4           5           6           7           8           9          10
 IAtWgt=          12          12          12           1          16          12           1           1           1           1
 AtmWgt=  12.0000000  12.0000000  12.0000000   1.0078250  15.9949146  12.0000000   1.0078250   1.0078250   1.0078250   1.0078250
 NucSpn=           0           0           0           1           0           0           1           1           1           1
 AtZEff=  -0.0000000  -0.0000000  -0.0000000  -0.0000000  -0.0000000  -0.0000000  -0.0000000  -0.0000000  -0.0000000  -0.0000000
 NQMom=    0.0000000   0.0000000   0.0000000   0.0000000   0.0000000   0.0000000   0.0000000   0.0000000   0.0000000   0.0000000
 NMagM=    0.0000000   0.0000000   0.0000000   2.7928460   0.0000000   0.0000000   2.7928460   2.7928460   2.7928460   2.7928460
 AtZNuc=   6.0000000   6.0000000   6.0000000   1.0000000   8.0000000   6.0000000   1.0000000   1.0000000   1.0000000   1.0000000

  Atom        11          12          13          14
 IAtWgt=           1           1           1          35
 AtmWgt=   1.0078250   1.0078250   1.0078250  34.9688527
 NucSpn=           1           1           1           3
 AtZEff=  -0.0000000  -0.0000000  -0.0000000  -0.0000000
 NQMom=    0.0000000   0.0000000   0.0000000  -8.1650000
 NMagM=    2.7928460   2.7928460   2.7928460   0.8218740
 AtZNuc=   1.0000000   1.0000000   1.0000000  17.0000000
 Leave Link  101 at Tue Oct  8 14:43:52 2024, MaxMem=  2684354560 cpu:               0.6 elap:               0.1
 (Enter /gpfs/fs1/soft/bebop/software/custom-built/gaussian/16-c.02/g16/l103.exe)

 GradGradGradGradGradGradGradGradGradGradGradGradGradGradGradGradGradGrad
 Berny optimization.
 Initialization pass.
                       ----------------------------
                       !    Initial Parameters    !
                       ! (Angstroms and Degrees)  !
 ----------------------                            ----------------------
 !      Name          Value   Derivative information (Atomic Units)     !
 ------------------------------------------------------------------------
 !       R1          1.4986   calculate D2E/DX2 analytically            !
 !       R2          1.4906   calculate D2E/DX2 analytically            !
 !       R3          1.0843   calculate D2E/DX2 analytically            !
 !       R4          1.435    calculate D2E/DX2 analytically            !
 !       R5          1.4997   calculate D2E/DX2 analytically            !
 !       R6          1.0863   calculate D2E/DX2 analytically            !
 !       R7          1.0895   calculate D2E/DX2 analytically            !
 !       R8          1.0894   calculate D2E/DX2 analytically            !
 !       R9          1.0853   calculate D2E/DX2 analytically            !
 !       R10         1.0853   calculate D2E/DX2 analytically            !
 !       R11         1.0887   calculate D2E/DX2 analytically            !
 !       R12         1.0893   calculate D2E/DX2 analytically            !
 !       R14         2.4179   calculate D2E/DX2 analytically            !
 !       A2        123.4256   calculate D2E/DX2 analytically            !
 !       A3        114.6349   calculate D2E/DX2 analytically            !
 !       A4         58.5292   calculate D2E/DX2 analytically            !
 !       A5        123.9442   calculate D2E/DX2 analytically            !
 !       A6        116.946    calculate D2E/DX2 analytically            !
 !       A7        109.7019   calculate D2E/DX2 analytically            !
 !       A8        109.6158   calculate D2E/DX2 analytically            !
 !       A9        112.0821   calculate D2E/DX2 analytically            !
 !       A10       111.9978   calculate D2E/DX2 analytically            !
 !       A11       109.8378   calculate D2E/DX2 analytically            !
 !       A12       109.4689   calculate D2E/DX2 analytically            !
 !       A14       104.8259   calculate D2E/DX2 analytically            !
 !       D3        205.8179   calculate D2E/DX2 analytically            !
 !       D4        105.3952   calculate D2E/DX2 analytically            !
 !       D5        255.4982   calculate D2E/DX2 analytically            !
 !       D6        101.0493   calculate D2E/DX2 analytically            !
 !       D7         93.7413   calculate D2E/DX2 analytically            !
 !       D8        118.6101   calculate D2E/DX2 analytically            !
 !       D9        238.7133   calculate D2E/DX2 analytically            !
 !       D10        24.5092   calculate D2E/DX2 analytically            !
 !       D11       238.6659   calculate D2E/DX2 analytically            !
 !       D12       119.9424   calculate D2E/DX2 analytically            !
 !       D14        97.6692   calculate D2E/DX2 analytically            !
 !       R13         1.0      frozen, calculate D2E/DX2 analytically    !
 !       A13        90.0      frozen, calculate D2E/DX2 analytically    !
 !       D13       166.2935   frozen, calculate D2E/DX2 analytically    !
 ------------------------------------------------------------------------
 Trust Radius=3.00D-01 FncErr=1.00D-07 GrdErr=1.00D-07 EigMax=2.50D+02 EigMin=1.00D-04
 Number of steps in this run=     60 maximum allowed number of steps=    100.
 Search for a saddle point of order  1.
 GradGradGradGradGradGradGradGradGradGradGradGradGradGradGradGradGradGrad

 Leave Link  103 at Tue Oct  8 14:43:52 2024, MaxMem=  2684354560 cpu:               0.1 elap:               0.0
 (Enter /gpfs/fs1/soft/bebop/software/custom-built/gaussian/16-c.02/g16/l202.exe)
 ---------------------------------------------------------------------------------------------------
                            Z-MATRIX (ANGSTROMS AND DEGREES)
   CD    Cent   Atom    N1       Length/X        N2       Alpha/Y        N3        Beta/Z          J
 ---------------------------------------------------------------------------------------------------
      1      1  C 
      2      2  C        1   1.498577(     1)
      3      3  C        1   1.490612(     2)      2  123.426(    15)
      4      4  H        1   1.084298(     3)      2  114.635(    16)      3  205.818(    28)      0
      5      5  O        3   1.434956(     4)      1   58.529(    17)      2  105.395(    29)      0
      6      6  C        3   1.499747(     5)      1  123.944(    18)      5  255.498(    30)      0
      7      7  H        3   1.086255(     6)      1  116.946(    19)      5  101.049(    31)      0
      8      8  H        2   1.089499(     7)      1  109.702(    20)      3   93.741(    32)      0
      9      9  H        2   1.089389(     8)      1  109.616(    21)      8  118.610(    33)      0
     10     10  H        2   1.085290(     9)      1  112.082(    22)      8  238.713(    34)      0
     11     11  H        6   1.085306(    10)      3  111.998(    23)      1   24.509(    35)      0
     12     12  H        6   1.088726(    11)      3  109.838(    24)     11  238.666(    36)      0
     13     13  H        6   1.089304(    12)      3  109.469(    25)     11  119.942(    37)      0
     14         X        7   1.000000(    13)      3   90.000(    26)      1  166.294(    38)      0
     15     14  Cl       7   2.417856(    14)     14  104.826(    27)      3   97.669(    39)      0
 ---------------------------------------------------------------------------------------------------
                         Z-Matrix orientation:                         
 ---------------------------------------------------------------------
 Center     Atomic      Atomic             Coordinates (Angstroms)
 Number     Number       Type             X           Y           Z
 ---------------------------------------------------------------------
      1          6           0        0.000000    0.000000    0.000000
      2          6           0        0.000000    0.000000    1.498577
      3          6           0        1.244067    0.000000   -0.821109
      4          1           0       -0.887227    0.429245   -0.451972
      5          8           0        0.439856   -1.179967   -0.679614
      6          6           0        2.628262   -0.019400   -0.244160
      7          1           0        1.177295    0.431224   -1.815864
      8          1           0       -0.066930    1.023533    1.865876
      9          1           0       -0.866887   -0.549112    1.864297
     10          1           0        0.891681   -0.465078    1.906574
     11          1           0        2.647530   -0.450031    0.751869
     12          1           0        3.024830    0.993618   -0.201118
     13          1           0        3.279778   -0.613848   -0.883489
     14         -1           0        2.175363    0.447325   -1.875879
     15         17           0        0.561664    2.670868   -1.144280
 ---------------------------------------------------------------------
                    Distance matrix (angstroms):
                    1          2          3          4          5
     1  C    0.000000
     2  C    1.498577   0.000000
     3  C    1.490612   2.632233   0.000000
     4  H    1.084298   2.185421   2.205205   0.000000
     5  O    1.430968   2.516011   1.434956   2.098221   0.000000
     6  C    2.639650   3.153612   1.499747   3.550089   2.515086
     7  H    2.206658   3.543656   1.086255   2.474360   2.104951
     8  H    2.129223   1.089499   3.160099   2.529523   3.404668
     9  H    2.128055   1.089389   3.459633   2.514498   2.928658
    10  H    2.155555   1.085290   2.789396   3.086595   2.720953
    11  H    2.788773   2.787385   2.155574   3.836257   2.730527
    12  H    3.190192   3.609133   2.131380   3.960510   3.411088
    13  H    3.451711   4.099755   2.127162   4.317196   2.902967
    14  X    2.907099   4.039710   1.476465   3.377468   2.662915
    15  Cl   2.959456   3.799170   2.775545   2.757435   3.880680
                    6          7          8          9         10
     6  C    0.000000
     7  H    2.186005   0.000000
     8  H    3.578271   3.931175   0.000000
     9  H    4.116097   4.322421   1.764411   0.000000
    10  H    2.800000   3.839464   1.771032   1.761082   0.000000
    11  H    1.085306   3.087306   3.283397   3.687606   2.101565
    12  H    1.088726   2.517355   3.719186   4.668128   3.334739
    13  H    1.089304   2.526249   4.630387   4.974872   3.675540
    14  X    1.756546   1.000000   4.400071   4.923117   4.097227
    15  Cl   3.509784   2.417856   3.488536   4.632555   4.387571
                   11         12         13         14         15
    11  H    0.000000
    12  H    1.770498   0.000000
    13  H    1.760957   1.764816   0.000000
    14  X    2.816603   1.955723   1.825009   0.000000
    15  Cl   4.205500   3.125686   4.271477   2.843132   0.000000
 Stoichiometry    C4H8ClO(2)
 Framework group  C1[X(C4H8ClO)]
 Deg. of freedom    36
 Full point group                 C1      NOp   1
 Largest Abelian subgroup         C1      NOp   1
 Largest concise Abelian subgroup C1      NOp   1
                         Standard orientation:                         
 ---------------------------------------------------------------------
 Center     Atomic      Atomic             Coordinates (Angstroms)
 Number     Number       Type             X           Y           Z
 ---------------------------------------------------------------------
      1          6           0        0.692945   -0.731851   -0.385919
      2          6           0        1.304451   -1.456463    0.774568
      3          6           0        0.406716    0.731017   -0.382000
      4          1           0        0.082170   -1.350453   -1.033983
      5          8           0        1.509150    0.185354   -1.120912
      6          6           0        0.714171    1.641409    0.769476
      7          1           0       -0.395147    1.077423   -1.027731
      8          1           0        0.518126   -1.875083    1.401831
      9          1           0        1.920512   -2.277452    0.409581
     10          1           0        1.930140   -0.806351    1.377662
     11          1           0        1.514148    1.253582    1.391984
     12          1           0       -0.176686    1.778560    1.380122
     13          1           0        1.021063    2.615398    0.390337
     14         17           0       -2.188072   -0.176654    0.001220
 ---------------------------------------------------------------------
 Rotational constants (GHZ):           3.5086615           1.7025804           1.4632529
 Leave Link  202 at Tue Oct  8 14:43:52 2024, MaxMem=  2684354560 cpu:               0.1 elap:               0.0
 (Enter /gpfs/fs1/soft/bebop/software/custom-built/gaussian/16-c.02/g16/l301.exe)
 Standard basis: CC-pVTZ (5D, 7F)
 Ernie: Thresh=  0.10000D-02 Tol=  0.10000D-05 Strict=F.
 Ernie:  28 primitive shells out of 254 were deleted.
 There are   334 symmetry adapted cartesian basis functions of A   symmetry.
 There are   296 symmetry adapted basis functions of A   symmetry.
   296 basis functions,   490 primitive gaussians,   334 cartesian basis functions
    29 alpha electrons       28 beta electrons
       nuclear repulsion energy       290.2212739213 Hartrees.
 IExCor=  419 DFT=T Ex+Corr=B2PLYPD3 ExCW=0 ScaHFX=  0.530000
 ScaDFX=  0.470000  0.470000  0.730000  0.730000 ScalE2=  0.270000  0.270000
 IRadAn=      5 IRanWt=     -1 IRanGd=            0 ICorTp=0 IEmpDi=141
 NAtoms=   14 NActive=   14 NUniq=   14 SFac= 1.00D+00 NAtFMM=   60 NAOKFM=F Big=F
 Integral buffers will be    131072 words long.
 Regular integral format.
 Two-electron integral symmetry is turned on.
 R6Disp:  Grimme-D3(BJ) Dispersion energy=       -0.0087519905 Hartrees.
 Nuclear repulsion after empirical dispersion term =      290.2125219307 Hartrees.
 Leave Link  301 at Tue Oct  8 14:43:52 2024, MaxMem=  2684354560 cpu:               0.3 elap:               0.1
 (Enter /gpfs/fs1/soft/bebop/software/custom-built/gaussian/16-c.02/g16/l302.exe)
 NPDir=0 NMtPBC=     1 NCelOv=     1 NCel=       1 NClECP=     1 NCelD=      1
         NCelK=      1 NCelE2=     1 NClLst=     1 CellRange=     0.0.
 One-electron integrals computed using PRISM.
 One-electron integral symmetry used in STVInt
 NBasis=   296 RedAO= T EigKep=  2.64D-04  NBF=   296
 NBsUse=   296 1.00D-06 EigRej= -1.00D+00 NBFU=   296
 Precomputing XC quadrature grid using
 IXCGrd= 4 IRadAn=           5 IRanWt=          -1 IRanGd=           0 AccXCQ= 0.00D+00.
 Generated NRdTot=       0 NPtTot=           0 NUsed=           0 NTot=          32
 NSgBfM=   334   334   334   334   334 MxSgAt=    14 MxSgA2=    14.
 Leave Link  302 at Tue Oct  8 14:43:52 2024, MaxMem=  2684354560 cpu:               1.1 elap:               0.2
 (Enter /gpfs/fs1/soft/bebop/software/custom-built/gaussian/16-c.02/g16/l303.exe)
 DipDrv:  MaxL=1.
 Leave Link  303 at Tue Oct  8 14:43:52 2024, MaxMem=  2684354560 cpu:               0.2 elap:               0.1
 (Enter /gpfs/fs1/soft/bebop/software/custom-built/gaussian/16-c.02/g16/l401.exe)
 ExpMin= 1.03D-01 ExpMax= 4.56D+05 ExpMxC= 1.44D+03 IAcc=3 IRadAn=         5 AccDes= 0.00D+00
 Harris functional with IExCor=  419 and IRadAn=       5 diagonalized for initial guess.
 HarFok:  IExCor=  419 AccDes= 0.00D+00 IRadAn=         5 IDoV= 1 UseB2=F ITyADJ=14
 ICtDFT=  3500011 ScaDFX=  1.000000  1.000000  1.000000  1.000000
 FoFCou: FMM=F IPFlag=           0 FMFlag=      100000 FMFlg1=           0
         NFxFlg=           0 DoJE=T BraDBF=F KetDBF=T FulRan=T
         wScrn=  0.000000 ICntrl=       500 IOpCl=  0 I1Cent=   200000004 NGrid=           0
         NMat0=    1 NMatS0=      1 NMatT0=    0 NMatD0=    1 NMtDS0=    0 NMtDT0=    0
 Petite list used in FoFCou.
 Harris En= -692.663629348068    
 JPrj=0 DoOrth=F DoCkMO=F.
 Initial guess <Sx>= 0.0000 <Sy>= 0.0000 <Sz>= 0.5000 <S**2>= 0.7500 S= 0.5000
 Leave Link  401 at Tue Oct  8 14:43:53 2024, MaxMem=  2684354560 cpu:               5.4 elap:               0.9
 (Enter /gpfs/fs1/soft/bebop/software/custom-built/gaussian/16-c.02/g16/l502.exe)
 Keep R1 and R2 ints in memory in canonical form, NReq=1950973320.
 FoFCou: FMM=F IPFlag=           0 FMFlag=           0 FMFlg1=           0
         NFxFlg=           0 DoJE=F BraDBF=F KetDBF=F FulRan=T
         wScrn=  0.000000 ICntrl=       600 IOpCl=  0 I1Cent=           0 NGrid=           0
         NMat0=    1 NMatS0=  43956 NMatT0=    0 NMatD0=    1 NMtDS0=    0 NMtDT0=    0
 Symmetry not used in FoFCou.
 Two-electron integral symmetry not used.
 UHF open shell SCF:
 Using DIIS extrapolation, IDIIS=  1040.
 NGot=  2684354560 LenX=   751952220 LenY=   751840223
 Requested convergence on RMS density matrix=1.00D-08 within  32 cycles.
 Requested convergence on MAX density matrix=1.00D-06.
 Requested convergence on             energy=1.00D-06.
 No special actions if energy rises.
 Integral accuracy reduced to 1.0D-05 until final iterations.

 Cycle   1  Pass 0  IDiag  1:
 E= -691.775111991069    
 DIIS: error= 3.38D-02 at cycle   1 NSaved=   1.
 NSaved= 1 IEnMin= 1 EnMin= -691.775111991069     IErMin= 1 ErrMin= 3.38D-02
 ErrMax= 3.38D-02  0.00D+00 EMaxC= 1.00D-01 BMatC= 1.18D+00 BMatP= 1.18D+00
 IDIUse=3 WtCom= 6.62D-01 WtEn= 3.38D-01
 Coeff-Com:  0.100D+01
 Coeff-En:   0.100D+01
 Coeff:      0.100D+01
 Gap=     0.716 Goal=   None    Shift=    0.000
 Gap=     0.244 Goal=   None    Shift=    0.000
 GapD=    0.244 DampG=1.000 DampE=0.500 DampFc=0.5000 IDamp=-1.
 Damping current iteration by 5.00D-01
 RMSDP=1.86D-03 MaxDP=6.41D-02              OVMax= 3.59D-01

 Cycle   2  Pass 0  IDiag  1:
 E= -691.880680375245     Delta-E=       -0.105568384177 Rises=F Damp=T
 DIIS: error= 7.79D-03 at cycle   2 NSaved=   2.
 NSaved= 2 IEnMin= 2 EnMin= -691.880680375245     IErMin= 2 ErrMin= 7.79D-03
 ErrMax= 7.79D-03  0.00D+00 EMaxC= 1.00D-01 BMatC= 1.21D-01 BMatP= 1.18D+00
 IDIUse=3 WtCom= 9.22D-01 WtEn= 7.79D-02
 Coeff-Com: -0.170D+00 0.117D+01
 Coeff-En:   0.000D+00 0.100D+01
 Coeff:     -0.157D+00 0.116D+01
 Gap=     0.485 Goal=   None    Shift=    0.000
 Gap=     0.221 Goal=   None    Shift=    0.000
 RMSDP=5.53D-04 MaxDP=2.42D-02 DE=-1.06D-01 OVMax= 2.82D-01

 Cycle   3  Pass 0  IDiag  1:
 E= -691.981325229898     Delta-E=       -0.100644854653 Rises=F Damp=F
 DIIS: error= 4.64D-03 at cycle   3 NSaved=   3.
 NSaved= 3 IEnMin= 3 EnMin= -691.981325229898     IErMin= 3 ErrMin= 4.64D-03
 ErrMax= 4.64D-03  0.00D+00 EMaxC= 1.00D-01 BMatC= 5.10D-02 BMatP= 1.21D-01
 IDIUse=3 WtCom= 9.54D-01 WtEn= 4.64D-02
 Coeff-Com: -0.156D+00 0.483D+00 0.672D+00
 Coeff-En:   0.000D+00 0.000D+00 0.100D+01
 Coeff:     -0.148D+00 0.461D+00 0.687D+00
 Gap=     0.466 Goal=   None    Shift=    0.000
 Gap=     0.223 Goal=   None    Shift=    0.000
 RMSDP=3.15D-04 MaxDP=1.26D-02 DE=-1.01D-01 OVMax= 4.32D-02

 Cycle   4  Pass 0  IDiag  1:
 E= -691.990254975113     Delta-E=       -0.008929745215 Rises=F Damp=F
 DIIS: error= 2.25D-03 at cycle   4 NSaved=   4.
 NSaved= 4 IEnMin= 4 EnMin= -691.990254975113     IErMin= 4 ErrMin= 2.25D-03
 ErrMax= 2.25D-03  0.00D+00 EMaxC= 1.00D-01 BMatC= 9.37D-03 BMatP= 5.10D-02
 IDIUse=3 WtCom= 9.77D-01 WtEn= 2.25D-02
 Coeff-Com: -0.657D-01 0.129D+00 0.342D+00 0.595D+00
 Coeff-En:   0.000D+00 0.000D+00 0.261D-01 0.974D+00
 Coeff:     -0.642D-01 0.126D+00 0.335D+00 0.604D+00
 Gap=     0.433 Goal=   None    Shift=    0.000
 Gap=     0.201 Goal=   None    Shift=    0.000
 RMSDP=1.03D-04 MaxDP=4.55D-03 DE=-8.93D-03 OVMax= 2.57D-02

 Cycle   5  Pass 0  IDiag  1:
 E= -691.992194739402     Delta-E=       -0.001939764289 Rises=F Damp=F
 DIIS: error= 5.98D-04 at cycle   5 NSaved=   5.
 NSaved= 5 IEnMin= 5 EnMin= -691.992194739402     IErMin= 5 ErrMin= 5.98D-04
 ErrMax= 5.98D-04  0.00D+00 EMaxC= 1.00D-01 BMatC= 5.59D-04 BMatP= 9.37D-03
 IDIUse=3 WtCom= 9.94D-01 WtEn= 5.98D-03
 Coeff-Com: -0.142D-01 0.185D-01 0.477D-01 0.210D+00 0.738D+00
 Coeff-En:   0.000D+00 0.000D+00 0.000D+00 0.000D+00 0.100D+01
 Coeff:     -0.141D-01 0.184D-01 0.474D-01 0.209D+00 0.739D+00
 Gap=     0.431 Goal=   None    Shift=    0.000
 Gap=     0.202 Goal=   None    Shift=    0.000
 RMSDP=3.60D-05 MaxDP=1.79D-03 DE=-1.94D-03 OVMax= 1.37D-02

 Cycle   6  Pass 0  IDiag  1:
 E= -691.992375814656     Delta-E=       -0.000181075254 Rises=F Damp=F
 DIIS: error= 3.54D-04 at cycle   6 NSaved=   6.
 NSaved= 6 IEnMin= 6 EnMin= -691.992375814656     IErMin= 6 ErrMin= 3.54D-04
 ErrMax= 3.54D-04  0.00D+00 EMaxC= 1.00D-01 BMatC= 9.25D-05 BMatP= 5.59D-04
 IDIUse=3 WtCom= 9.96D-01 WtEn= 3.54D-03
 Coeff-Com:  0.682D-02-0.145D-01-0.604D-01-0.467D-01 0.190D+00 0.925D+00
 Coeff-En:   0.000D+00 0.000D+00 0.000D+00 0.000D+00 0.000D+00 0.100D+01
 Coeff:      0.679D-02-0.144D-01-0.602D-01-0.466D-01 0.189D+00 0.925D+00
 Gap=     0.429 Goal=   None    Shift=    0.000
 Gap=     0.202 Goal=   None    Shift=    0.000
 RMSDP=2.95D-05 MaxDP=1.67D-03 DE=-1.81D-04 OVMax= 1.07D-02

 Cycle   7  Pass 0  IDiag  1:
 E= -691.992443799402     Delta-E=       -0.000067984745 Rises=F Damp=F
 DIIS: error= 1.32D-04 at cycle   7 NSaved=   7.
 NSaved= 7 IEnMin= 7 EnMin= -691.992443799402     IErMin= 7 ErrMin= 1.32D-04
 ErrMax= 1.32D-04  0.00D+00 EMaxC= 1.00D-01 BMatC= 1.54D-05 BMatP= 9.25D-05
 IDIUse=3 WtCom= 9.99D-01 WtEn= 1.32D-03
 Coeff-Com:  0.228D-02-0.258D-02-0.223D-01-0.411D-01-0.966D-01 0.123D+00
 Coeff-Com:  0.104D+01
 Coeff-En:   0.000D+00 0.000D+00 0.000D+00 0.000D+00 0.000D+00 0.000D+00
 Coeff-En:   0.100D+01
 Coeff:      0.228D-02-0.258D-02-0.222D-01-0.410D-01-0.964D-01 0.123D+00
 Coeff:      0.104D+01
 Gap=     0.429 Goal=   None    Shift=    0.000
 Gap=     0.201 Goal=   None    Shift=    0.000
 RMSDP=1.73D-05 MaxDP=8.41D-04 DE=-6.80D-05 OVMax= 7.34D-03

 Cycle   8  Pass 0  IDiag  1:
 E= -691.992462184724     Delta-E=       -0.000018385322 Rises=F Damp=F
 DIIS: error= 6.72D-05 at cycle   8 NSaved=   8.
 NSaved= 8 IEnMin= 8 EnMin= -691.992462184724     IErMin= 8 ErrMin= 6.72D-05
 ErrMax= 6.72D-05  0.00D+00 EMaxC= 1.00D-01 BMatC= 3.33D-06 BMatP= 1.54D-05
 IDIUse=1 WtCom= 1.00D+00 WtEn= 0.00D+00
 Coeff-Com: -0.231D-02 0.497D-02 0.118D-01 0.155D-01-0.157D-01-0.225D+00
 Coeff-Com:  0.140D-01 0.120D+01
 Coeff:     -0.231D-02 0.497D-02 0.118D-01 0.155D-01-0.157D-01-0.225D+00
 Coeff:      0.140D-01 0.120D+01
 Gap=     0.428 Goal=   None    Shift=    0.000
 Gap=     0.201 Goal=   None    Shift=    0.000
 RMSDP=8.87D-06 MaxDP=4.61D-04 DE=-1.84D-05 OVMax= 3.53D-03

 Initial convergence to 1.0D-05 achieved.  Increase integral accuracy.
 Cycle   9  Pass 1  IDiag  1:
 E= -691.992467879161     Delta-E=       -0.000005694438 Rises=F Damp=F
 DIIS: error= 3.38D-05 at cycle   1 NSaved=   1.
 NSaved= 1 IEnMin= 1 EnMin= -691.992467879161     IErMin= 1 ErrMin= 3.38D-05
 ErrMax= 3.38D-05  0.00D+00 EMaxC= 1.00D-01 BMatC= 5.16D-07 BMatP= 5.16D-07
 IDIUse=1 WtCom= 1.00D+00 WtEn= 0.00D+00
 Coeff-Com:  0.100D+01
 Coeff:      0.100D+01
 Gap=     0.428 Goal=   None    Shift=    0.000
 Gap=     0.201 Goal=   None    Shift=    0.000
 RMSDP=8.87D-06 MaxDP=4.61D-04 DE=-5.69D-06 OVMax= 6.47D-04

 Cycle  10  Pass 1  IDiag  1:
 E= -691.992468483833     Delta-E=       -0.000000604672 Rises=F Damp=F
 DIIS: error= 3.34D-05 at cycle   2 NSaved=   2.
 NSaved= 2 IEnMin= 2 EnMin= -691.992468483833     IErMin= 2 ErrMin= 3.34D-05
 ErrMax= 3.34D-05  0.00D+00 EMaxC= 1.00D-01 BMatC= 2.60D-07 BMatP= 5.16D-07
 IDIUse=1 WtCom= 1.00D+00 WtEn= 0.00D+00
 Coeff-Com:  0.159D+00 0.841D+00
 Coeff:      0.159D+00 0.841D+00
 Gap=     0.428 Goal=   None    Shift=    0.000
 Gap=     0.201 Goal=   None    Shift=    0.000
 RMSDP=1.60D-06 MaxDP=1.32D-04 DE=-6.05D-07 OVMax= 5.00D-04

 Cycle  11  Pass 1  IDiag  1:
 E= -691.992468827644     Delta-E=       -0.000000343811 Rises=F Damp=F
 DIIS: error= 3.07D-05 at cycle   3 NSaved=   3.
 NSaved= 3 IEnMin= 3 EnMin= -691.992468827644     IErMin= 3 ErrMin= 3.07D-05
 ErrMax= 3.07D-05  0.00D+00 EMaxC= 1.00D-01 BMatC= 2.14D-07 BMatP= 2.60D-07
 IDIUse=1 WtCom= 1.00D+00 WtEn= 0.00D+00
 Coeff-Com: -0.470D+00 0.458D+00 0.101D+01
 Coeff:     -0.470D+00 0.458D+00 0.101D+01
 Gap=     0.428 Goal=   None    Shift=    0.000
 Gap=     0.201 Goal=   None    Shift=    0.000
 RMSDP=2.51D-06 MaxDP=2.24D-04 DE=-3.44D-07 OVMax= 8.49D-04

 Cycle  12  Pass 1  IDiag  1:
 E= -691.992469308041     Delta-E=       -0.000000480397 Rises=F Damp=F
 DIIS: error= 2.80D-05 at cycle   4 NSaved=   4.
 NSaved= 4 IEnMin= 4 EnMin= -691.992469308041     IErMin= 4 ErrMin= 2.80D-05
 ErrMax= 2.80D-05  0.00D+00 EMaxC= 1.00D-01 BMatC= 1.06D-07 BMatP= 2.14D-07
 IDIUse=1 WtCom= 1.00D+00 WtEn= 0.00D+00
 Coeff-Com: -0.291D+00-0.340D-01 0.390D+00 0.934D+00
 Coeff:     -0.291D+00-0.340D-01 0.390D+00 0.934D+00
 Gap=     0.428 Goal=   None    Shift=    0.000
 Gap=     0.201 Goal=   None    Shift=    0.000
 RMSDP=2.19D-06 MaxDP=2.05D-04 DE=-4.80D-07 OVMax= 7.81D-04

 Cycle  13  Pass 1  IDiag  1:
 E= -691.992469668365     Delta-E=       -0.000000360324 Rises=F Damp=F
 DIIS: error= 2.53D-05 at cycle   5 NSaved=   5.
 NSaved= 5 IEnMin= 5 EnMin= -691.992469668365     IErMin= 5 ErrMin= 2.53D-05
 ErrMax= 2.53D-05  0.00D+00 EMaxC= 1.00D-01 BMatC= 7.73D-08 BMatP= 1.06D-07
 IDIUse=1 WtCom= 1.00D+00 WtEn= 0.00D+00
 Coeff-Com:  0.295D+00-0.204D+00-0.588D+00-0.239D+00 0.174D+01
 Coeff:      0.295D+00-0.204D+00-0.588D+00-0.239D+00 0.174D+01
 Gap=     0.428 Goal=   None    Shift=    0.000
 Gap=     0.201 Goal=   None    Shift=    0.000
 RMSDP=3.22D-06 MaxDP=3.08D-04 DE=-3.60D-07 OVMax= 1.18D-03

 Cycle  14  Pass 1  IDiag  1:
 E= -691.992470135114     Delta-E=       -0.000000466749 Rises=F Damp=F
 DIIS: error= 2.13D-05 at cycle   6 NSaved=   6.
 NSaved= 6 IEnMin= 6 EnMin= -691.992470135114     IErMin= 6 ErrMin= 2.13D-05
 ErrMax= 2.13D-05  0.00D+00 EMaxC= 1.00D-01 BMatC= 5.78D-08 BMatP= 7.73D-08
 IDIUse=1 WtCom= 1.00D+00 WtEn= 0.00D+00
 Coeff-Com:  0.507D+00-0.102D+00-0.654D+00-0.134D+01 0.374D+00 0.222D+01
 Coeff:      0.507D+00-0.102D+00-0.654D+00-0.134D+01 0.374D+00 0.222D+01
 Gap=     0.428 Goal=   None    Shift=    0.000
 Gap=     0.201 Goal=   None    Shift=    0.000
 RMSDP=7.14D-06 MaxDP=6.81D-04 DE=-4.67D-07 OVMax= 2.61D-03

 Cycle  15  Pass 1  IDiag  1:
 E= -691.992470893613     Delta-E=       -0.000000758498 Rises=F Damp=F
 DIIS: error= 1.23D-05 at cycle   7 NSaved=   7.
 NSaved= 7 IEnMin= 7 EnMin= -691.992470893613     IErMin= 7 ErrMin= 1.23D-05
 ErrMax= 1.23D-05  0.00D+00 EMaxC= 1.00D-01 BMatC= 2.54D-08 BMatP= 5.78D-08
 IDIUse=1 WtCom= 1.00D+00 WtEn= 0.00D+00
 Coeff-Com: -0.157D+00 0.114D+00 0.516D+00 0.863D-02-0.184D+01 0.622D+00
 Coeff-Com:  0.173D+01
 Coeff:     -0.157D+00 0.114D+00 0.516D+00 0.863D-02-0.184D+01 0.622D+00
 Coeff:      0.173D+01
 Gap=     0.428 Goal=   None    Shift=    0.000
 Gap=     0.201 Goal=   None    Shift=    0.000
 RMSDP=7.97D-06 MaxDP=7.61D-04 DE=-7.58D-07 OVMax= 2.92D-03

 Cycle  16  Pass 1  IDiag  1:
 E= -691.992471291075     Delta-E=       -0.000000397463 Rises=F Damp=F
 DIIS: error= 2.69D-06 at cycle   8 NSaved=   8.
 NSaved= 8 IEnMin= 8 EnMin= -691.992471291075     IErMin= 8 ErrMin= 2.69D-06
 ErrMax= 2.69D-06  0.00D+00 EMaxC= 1.00D-01 BMatC= 3.24D-09 BMatP= 2.54D-08
 IDIUse=1 WtCom= 1.00D+00 WtEn= 0.00D+00
 Coeff-Com: -0.124D+00 0.204D-01 0.201D+00 0.311D+00-0.246D+00-0.459D+00
 Coeff-Com:  0.162D+00 0.113D+01
 Coeff:     -0.124D+00 0.204D-01 0.201D+00 0.311D+00-0.246D+00-0.459D+00
 Coeff:      0.162D+00 0.113D+01
 Gap=     0.428 Goal=   None    Shift=    0.000
 Gap=     0.201 Goal=   None    Shift=    0.000
 RMSDP=1.95D-06 MaxDP=1.88D-04 DE=-3.97D-07 OVMax= 7.03D-04

 Cycle  17  Pass 1  IDiag  1:
 E= -691.992471316052     Delta-E=       -0.000000024977 Rises=F Damp=F
 DIIS: error= 1.00D-06 at cycle   9 NSaved=   9.
 NSaved= 9 IEnMin= 9 EnMin= -691.992471316052     IErMin= 9 ErrMin= 1.00D-06
 ErrMax= 1.00D-06  0.00D+00 EMaxC= 1.00D-01 BMatC= 6.46D-10 BMatP= 3.24D-09
 IDIUse=1 WtCom= 1.00D+00 WtEn= 0.00D+00
 Coeff-Com:  0.136D-01-0.250D-01-0.695D-01 0.528D-01 0.331D+00-0.202D+00
 Coeff-Com: -0.331D+00 0.184D+00 0.105D+01
 Coeff:      0.136D-01-0.250D-01-0.695D-01 0.528D-01 0.331D+00-0.202D+00
 Coeff:     -0.331D+00 0.184D+00 0.105D+01
 Gap=     0.428 Goal=   None    Shift=    0.000
 Gap=     0.201 Goal=   None    Shift=    0.000
 RMSDP=4.83D-07 MaxDP=4.87D-05 DE=-2.50D-08 OVMax= 1.64D-04

 Cycle  18  Pass 1  IDiag  1:
 E= -691.992471317922     Delta-E=       -0.000000001869 Rises=F Damp=F
 DIIS: error= 6.53D-07 at cycle  10 NSaved=  10.
 NSaved=10 IEnMin=10 EnMin= -691.992471317922     IErMin=10 ErrMin= 6.53D-07
 ErrMax= 6.53D-07  0.00D+00 EMaxC= 1.00D-01 BMatC= 1.66D-10 BMatP= 6.46D-10
 IDIUse=1 WtCom= 1.00D+00 WtEn= 0.00D+00
 Coeff-Com:  0.220D-01-0.857D-02-0.431D-01-0.372D-01 0.102D+00 0.361D-01
 Coeff-Com: -0.999D-01-0.155D+00 0.258D+00 0.926D+00
 Coeff:      0.220D-01-0.857D-02-0.431D-01-0.372D-01 0.102D+00 0.361D-01
 Coeff:     -0.999D-01-0.155D+00 0.258D+00 0.926D+00
 Gap=     0.428 Goal=   None    Shift=    0.000
 Gap=     0.201 Goal=   None    Shift=    0.000
 RMSDP=1.06D-07 MaxDP=1.22D-05 DE=-1.87D-09 OVMax= 4.24D-05

 Cycle  19  Pass 1  IDiag  1:
 E= -691.992471318185     Delta-E=       -0.000000000263 Rises=F Damp=F
 DIIS: error= 5.91D-07 at cycle  11 NSaved=  11.
 NSaved=11 IEnMin=11 EnMin= -691.992471318185     IErMin=11 ErrMin= 5.91D-07
 ErrMax= 5.91D-07  0.00D+00 EMaxC= 1.00D-01 BMatC= 6.25D-11 BMatP= 1.66D-10
 IDIUse=1 WtCom= 1.00D+00 WtEn= 0.00D+00
 Coeff-Com: -0.835D-03 0.520D-02 0.839D-02-0.165D-01-0.545D-01 0.425D-01
 Coeff-Com:  0.616D-01-0.436D-01-0.201D+00 0.496D-01 0.115D+01
 Coeff:     -0.835D-03 0.520D-02 0.839D-02-0.165D-01-0.545D-01 0.425D-01
 Coeff:      0.616D-01-0.436D-01-0.201D+00 0.496D-01 0.115D+01
 Gap=     0.428 Goal=   None    Shift=    0.000
 Gap=     0.201 Goal=   None    Shift=    0.000
 RMSDP=4.59D-08 MaxDP=4.94D-06 DE=-2.63D-10 OVMax= 1.88D-05

 Cycle  20  Pass 1  IDiag  1:
 E= -691.992471318347     Delta-E=       -0.000000000162 Rises=F Damp=F
 DIIS: error= 5.35D-07 at cycle  12 NSaved=  12.
 NSaved=12 IEnMin=12 EnMin= -691.992471318347     IErMin=12 ErrMin= 5.35D-07
 ErrMax= 5.35D-07  0.00D+00 EMaxC= 1.00D-01 BMatC= 3.90D-11 BMatP= 6.25D-11
 IDIUse=1 WtCom= 1.00D+00 WtEn= 0.00D+00
 Coeff-Com: -0.827D-02 0.611D-02 0.160D-01 0.709D-02-0.453D-01-0.342D-02
 Coeff-Com:  0.503D-01 0.311D-01-0.138D+00-0.261D+00 0.266D+00 0.108D+01
 Coeff:     -0.827D-02 0.611D-02 0.160D-01 0.709D-02-0.453D-01-0.342D-02
 Coeff:      0.503D-01 0.311D-01-0.138D+00-0.261D+00 0.266D+00 0.108D+01
 Gap=     0.428 Goal=   None    Shift=    0.000
 Gap=     0.201 Goal=   None    Shift=    0.000
 RMSDP=4.43D-08 MaxDP=4.60D-06 DE=-1.62D-10 OVMax= 1.77D-05

 Cycle  21  Pass 1  IDiag  1:
 E= -691.992471318487     Delta-E=       -0.000000000140 Rises=F Damp=F
 DIIS: error= 4.95D-07 at cycle  13 NSaved=  13.
 NSaved=13 IEnMin=13 EnMin= -691.992471318487     IErMin=13 ErrMin= 4.95D-07
 ErrMax= 4.95D-07  0.00D+00 EMaxC= 1.00D-01 BMatC= 2.90D-11 BMatP= 3.90D-11
 IDIUse=1 WtCom= 1.00D+00 WtEn= 0.00D+00
 Coeff-Com:  0.336D-02-0.321D-02-0.994D-02 0.677D-03 0.391D-01-0.146D-01
 Coeff-Com: -0.376D-01-0.643D-02 0.129D+00 0.112D+00-0.533D+00-0.430D+00
 Coeff-Com:  0.175D+01
 Coeff:      0.336D-02-0.321D-02-0.994D-02 0.677D-03 0.391D-01-0.146D-01
 Coeff:     -0.376D-01-0.643D-02 0.129D+00 0.112D+00-0.533D+00-0.430D+00
 Coeff:      0.175D+01
 Gap=     0.428 Goal=   None    Shift=    0.000
 Gap=     0.201 Goal=   None    Shift=    0.000
 RMSDP=5.81D-08 MaxDP=5.55D-06 DE=-1.40D-10 OVMax= 2.18D-05

 Cycle  22  Pass 1  IDiag  1:
 E= -691.992471318650     Delta-E=       -0.000000000163 Rises=F Damp=F
 DIIS: error= 4.28D-07 at cycle  14 NSaved=  14.
 NSaved=14 IEnMin=14 EnMin= -691.992471318650     IErMin=14 ErrMin= 4.28D-07
 ErrMax= 4.28D-07  0.00D+00 EMaxC= 1.00D-01 BMatC= 2.24D-11 BMatP= 2.90D-11
 IDIUse=1 WtCom= 1.00D+00 WtEn= 0.00D+00
 Coeff-Com:  0.140D-01-0.103D-01-0.256D-01-0.132D-01 0.788D-01 0.266D-02
 Coeff-Com: -0.850D-01-0.576D-01 0.262D+00 0.456D+00-0.558D+00-0.201D+01
 Coeff-Com:  0.432D+00 0.251D+01
 Coeff:      0.140D-01-0.103D-01-0.256D-01-0.132D-01 0.788D-01 0.266D-02
 Coeff:     -0.850D-01-0.576D-01 0.262D+00 0.456D+00-0.558D+00-0.201D+01
 Coeff:      0.432D+00 0.251D+01
 Gap=     0.428 Goal=   None    Shift=    0.000
 Gap=     0.201 Goal=   None    Shift=    0.000
 RMSDP=1.57D-07 MaxDP=1.44D-05 DE=-1.63D-10 OVMax= 5.71D-05

 Cycle  23  Pass 1  IDiag  1:
 E= -691.992471318977     Delta-E=       -0.000000000327 Rises=F Damp=F
 DIIS: error= 2.58D-07 at cycle  15 NSaved=  15.
 NSaved=15 IEnMin=15 EnMin= -691.992471318977     IErMin=15 ErrMin= 2.58D-07
 ErrMax= 2.58D-07  0.00D+00 EMaxC= 1.00D-01 BMatC= 8.53D-12 BMatP= 2.24D-11
 IDIUse=1 WtCom= 1.00D+00 WtEn= 0.00D+00
 Coeff-Com: -0.593D-02 0.419D-02 0.159D-01 0.303D-02-0.525D-01 0.115D-01
 Coeff-Com:  0.486D-01 0.260D-01-0.148D+00-0.214D+00 0.588D+00 0.602D+00
 Coeff-Com: -0.159D+01-0.406D+00 0.211D+01
 Coeff:     -0.593D-02 0.419D-02 0.159D-01 0.303D-02-0.525D-01 0.115D-01
 Coeff:      0.486D-01 0.260D-01-0.148D+00-0.214D+00 0.588D+00 0.602D+00
 Coeff:     -0.159D+01-0.406D+00 0.211D+01
 Gap=     0.428 Goal=   None    Shift=    0.000
 Gap=     0.201 Goal=   None    Shift=    0.000
 RMSDP=1.81D-07 MaxDP=1.64D-05 DE=-3.27D-10 OVMax= 6.56D-05

 Cycle  24  Pass 1  IDiag  1:
 E= -691.992471319151     Delta-E=       -0.000000000174 Rises=F Damp=F
 DIIS: error= 5.40D-08 at cycle  16 NSaved=  16.
 NSaved=16 IEnMin=16 EnMin= -691.992471319151     IErMin=16 ErrMin= 5.40D-08
 ErrMax= 5.40D-08  0.00D+00 EMaxC= 1.00D-01 BMatC= 7.55D-13 BMatP= 8.53D-12
 IDIUse=1 WtCom= 1.00D+00 WtEn= 0.00D+00
 Coeff-Com: -0.144D-02 0.137D-02 0.263D-02 0.656D-03-0.845D-02 0.516D-03
 Coeff-Com:  0.990D-02 0.299D-02-0.341D-01-0.519D-01 0.675D-01 0.291D+00
 Coeff-Com:  0.504D-01-0.467D+00-0.105D+00 0.124D+01
 Coeff:     -0.144D-02 0.137D-02 0.263D-02 0.656D-03-0.845D-02 0.516D-03
 Coeff:      0.990D-02 0.299D-02-0.341D-01-0.519D-01 0.675D-01 0.291D+00
 Coeff:      0.504D-01-0.467D+00-0.105D+00 0.124D+01
 Gap=     0.428 Goal=   None    Shift=    0.000
 Gap=     0.201 Goal=   None    Shift=    0.000
 RMSDP=3.83D-08 MaxDP=3.45D-06 DE=-1.74D-10 OVMax= 1.40D-05

 Cycle  25  Pass 1  IDiag  1:
 E= -691.992471319157     Delta-E=       -0.000000000005 Rises=F Damp=F
 DIIS: error= 8.52D-09 at cycle  17 NSaved=  17.
 NSaved=17 IEnMin=17 EnMin= -691.992471319157     IErMin=17 ErrMin= 8.52D-09
 ErrMax= 8.52D-09  0.00D+00 EMaxC= 1.00D-01 BMatC= 8.35D-14 BMatP= 7.55D-13
 IDIUse=1 WtCom= 1.00D+00 WtEn= 0.00D+00
 Coeff-Com:  0.333D-03-0.268D-03-0.937D-03-0.411D-04 0.342D-02-0.881D-03
 Coeff-Com: -0.322D-02-0.273D-02 0.986D-02 0.148D-01-0.489D-01-0.261D-01
 Coeff-Com:  0.188D+00-0.202D-01-0.257D+00 0.856D-01 0.106D+01
 Coeff:      0.333D-03-0.268D-03-0.937D-03-0.411D-04 0.342D-02-0.881D-03
 Coeff:     -0.322D-02-0.273D-02 0.986D-02 0.148D-01-0.489D-01-0.261D-01
 Coeff:      0.188D+00-0.202D-01-0.257D+00 0.856D-01 0.106D+01
 Gap=     0.428 Goal=   None    Shift=    0.000
 Gap=     0.201 Goal=   None    Shift=    0.000
 RMSDP=5.89D-09 MaxDP=5.36D-07 DE=-5.46D-12 OVMax= 2.20D-06

 SCF Done:  E(UB2PLYPD3) =  -691.992471319     A.U. after   25 cycles
            NFock= 25  Conv=0.59D-08     -V/T= 2.0026
 <Sx>= 0.0000 <Sy>= 0.0000 <Sz>= 0.5000 <S**2>= 0.7563 S= 0.5032
 <L.S>=  0.00000000000    
 KE= 6.902098269203D+02 PE=-2.215654857284D+03 EE= 5.432400371136D+02
 Annihilation of the first spin contaminant:
 S**2 before annihilation     0.7563,   after     0.7500
 Leave Link  502 at Tue Oct  8 14:45:54 2024, MaxMem=  2684354560 cpu:             327.1 elap:             120.4
 (Enter /gpfs/fs1/soft/bebop/software/custom-built/gaussian/16-c.02/g16/l508.exe)
 QCSCF skips out because SCF is already converged.
 Leave Link  508 at Tue Oct  8 14:45:54 2024, MaxMem=  2684354560 cpu:               0.0 elap:               0.0
 (Enter /gpfs/fs1/soft/bebop/software/custom-built/gaussian/16-c.02/g16/l801.exe)
 DoSCS=T DFT=T ScalE2(SS,OS)=  0.270000  0.270000
 ExpMin= 1.03D-01 ExpMax= 4.56D+05 ExpMxC= 1.44D+03 IAcc=3 IRadAn=         5 AccDes= 0.00D+00
 HarFok:  IExCor=  205 AccDes= 0.00D+00 IRadAn=         5 IDoV=-2 UseB2=F ITyADJ=14
 ICtDFT= 12500011 ScaDFX=  1.000000  1.000000  1.000000  1.000000
 Largest valence mixing into a core orbital is  1.85D-04
 Largest core mixing into a valence orbital is  7.36D-05
 Largest valence mixing into a core orbital is  1.95D-04
 Largest core mixing into a valence orbital is  6.72D-05
 Range of M.O.s used for correlation:    11   296
 NBasis=   296 NAE=    29 NBE=    28 NFC=    10 NFV=     0
 NROrb=    286 NOA=    19 NOB=    18 NVA=   267 NVB=   268

 **** Warning!!: The largest alpha MO coefficient is  0.12346571D+02


 **** Warning!!: The largest beta MO coefficient is  0.11797312D+02

 Leave Link  801 at Tue Oct  8 14:45:54 2024, MaxMem=  2684354560 cpu:               0.6 elap:               0.1
 (Enter /gpfs/fs1/soft/bebop/software/custom-built/gaussian/16-c.02/g16/l906.exe)
 DoSCS=T DFT=T ScalE2(SS,OS)=  0.270000  0.270000
 Frozen-core derivative calculation, NFC=  10 NFV=   0.
 FulOut=F Deriv=T AODrv=T NAtomX=    14
   MMem=           0  MDisk=          19 MDiskD=          19
  W3Min=     5734112 MinDsk=     8928555 NBas6D=         334
 NBas2D=       56620    NTT=       55945    LW2=     7400000
    MDV=  2682908776 MDiskM=       40133 NBas2p=       56240
 Disk-based method using ON**2 memory for 19 occupieds at a time.
 Permanent disk used for amplitudes=    86045022 words.
 Estimated scratch disk usage=  1277189184 words.
 IMap=   1   2   3   4   5   6   7   8   9  10  11  12  13  14  15  16  17  18  19  20
 IMap=  21  22  23  24  25  26  27  28  29
 Actual    scratch disk usage=  1234599488 words.
 JobTyp=2 Pass  1:  I=  11 to  29 NPSUse=  6 ParTrn=T ParDer=T DoDerP=T.
 (rs|ai) integrals will be sorted in core.
 IMap=   1   2   3   4   5   6   7   8   9  10  11  12  13  14  15  16  17  18  19  20
 IMap=  21  22  23  24  25  26  27  28
 Actual    scratch disk usage=  1234599488 words.
 JobTyp=3 Pass  1:  I=  11 to  28 NPSUse=  6 ParTrn=T ParDer=T DoDerP=T.
 (rs|ai) integrals will be sorted in core.
 Spin components of T(2) and E(2):
     alpha-alpha T2 =       0.6646018370D-01 E2=     -0.4492063234D-01
     alpha-beta  T2 =       0.3777734914D+00 E2=     -0.2725719807D+00
     beta-beta   T2 =       0.6546499726D-01 E2=     -0.4208105281D-01
 The integrals were generated   2 times.
 (S**2,0)=  0.75632D+00           (S**2,1)=  0.74589D+00
 Scaling Projection term by:   0.270000
 E(PUHF)=      -0.69199533846D+03        E(PMP2)=      -0.69235218174D+03
 E2(B2PLYPD3) =    -0.3595736659D+00 E(B2PLYPD3) =    -0.69235204498502D+03
 Leave Link  906 at Tue Oct  8 15:23:57 2024, MaxMem=  2684354560 cpu:           13662.3 elap:            2283.3
 (Enter /gpfs/fs1/soft/bebop/software/custom-built/gaussian/16-c.02/g16/l1101.exe)
 Using compressed Sx but separate Hx and Fx, NAtomX=    14.
 Will process     15 centers per pass.
 R6Disp: Adding Grimme-D3(BJ) dispersion energy 1st derivatives to the gradient.
 Leave Link 1101 at Tue Oct  8 15:23:58 2024, MaxMem=  2684354560 cpu:               1.2 elap:               0.2
 (Enter /gpfs/fs1/soft/bebop/software/custom-built/gaussian/16-c.02/g16/l1102.exe)
 Leave Link 1102 at Tue Oct  8 15:23:58 2024, MaxMem=  2684354560 cpu:               0.1 elap:               0.0
 (Enter /gpfs/fs1/soft/bebop/software/custom-built/gaussian/16-c.02/g16/l1110.exe)
 Forming Gx(P) for the SCF density, NAtomX=    14.
 Integral derivatives from FoFJK, PRISM(SPDF).
 Do as many integral derivatives as possible in FoFJK.
 G2DrvN: MDV=    2684352982.
 G2DrvN: will do    15 centers at a time, making    1 passes.
 Calling FoFCou, ICntrl=  3107 FMM=F I1Cent=   0 AccDes= 0.00D+00.
 FoFJK:  IHMeth= 1 ICntrl=    3107 DoSepK=F KAlg= 0 I1Cent=           0 FoldK=F
 IRaf=         0 NMat=       1 IRICut=       1 DoRegI=T DoRafI=F ISym2E= 0 IDoP0=0 IntGTp=1.
 FoFCou: FMM=F IPFlag=           0 FMFlag=      100000 FMFlg1=           0
         NFxFlg=           0 DoJE=F BraDBF=F KetDBF=F FulRan=T
         wScrn=  0.000000 ICntrl=      3107 IOpCl=  1 I1Cent=           0 NGrid=           0
         NMat0=    1 NMatS0=      1 NMatT0=    0 NMatD0=    1 NMtDS0=    0 NMtDT0=    0
 Symmetry not used in FoFCou.
 End of G2Drv F.D. properties file   721 does not exist.
 End of G2Drv F.D. properties file   722 does not exist.
 End of G2Drv F.D. properties file   788 does not exist.
 Leave Link 1110 at Tue Oct  8 15:25:34 2024, MaxMem=  2684354560 cpu:             576.7 elap:              96.4
 (Enter /gpfs/fs1/soft/bebop/software/custom-built/gaussian/16-c.02/g16/l1002.exe)
 Minotr:  UHF open shell wavefunction.
          IDoAtm=11111111111111
          Frozen-core window.
          Direct CPHF calculation.
          Differentiating once with respect to electric field.
                with respect to dipole field.
          Differentiating once with respect to nuclear coordinates.
          Requested convergence is 1.0D-08 RMS, and 1.0D-07 maximum.
          Secondary convergence is 1.0D-12 RMS, and 1.0D-12 maximum.
          NewPWx=T KeepS1=T KeepF1=T KeepIn=T MapXYZ=F SortEE=F KeepMc=T.
         4138 words used for storage of precomputed grid.
 Keep R1 and R2 ints in memory in canonical form, NReq=1950980002.
 FoFCou: FMM=F IPFlag=           0 FMFlag=           0 FMFlg1=           0
         NFxFlg=           0 DoJE=F BraDBF=F KetDBF=F FulRan=T
         wScrn=  0.000000 ICntrl=       600 IOpCl=  0 I1Cent=           0 NGrid=           0
         NMat0=    1 NMatS0=  43956 NMatT0=    0 NMatD0=    1 NMtDS0=    0 NMtDT0=    0
 Symmetry not used in FoFCou.
 Two-electron integral symmetry not used.
          MDV=    2684354560 using IRadAn=       1.
          Solving linear equations simultaneously, MaxMat=       0.
          There are    45 degrees of freedom in the 1st order CPHF.  IDoFFX=6 NUNeed=    45.
     42 vectors produced by pass  0 Test12= 3.39D-14 2.22D-09 XBig12= 1.01D+02 7.24D+00.
 AX will form    42 AO Fock derivatives at one time.
     42 vectors produced by pass  1 Test12= 3.39D-14 2.22D-09 XBig12= 1.08D+01 6.40D-01.
     42 vectors produced by pass  2 Test12= 3.39D-14 2.22D-09 XBig12= 5.85D-01 1.52D-01.
     42 vectors produced by pass  3 Test12= 3.39D-14 2.22D-09 XBig12= 1.08D-02 1.37D-02.
     42 vectors produced by pass  4 Test12= 3.39D-14 2.22D-09 XBig12= 1.44D-04 1.85D-03.
     42 vectors produced by pass  5 Test12= 3.39D-14 2.22D-09 XBig12= 1.58D-06 1.41D-04.
     41 vectors produced by pass  6 Test12= 3.39D-14 2.22D-09 XBig12= 1.54D-08 1.08D-05.
     18 vectors produced by pass  7 Test12= 3.39D-14 2.22D-09 XBig12= 1.10D-10 8.63D-07.
      3 vectors produced by pass  8 Test12= 3.39D-14 2.22D-09 XBig12= 1.02D-12 9.03D-08.
      2 vectors produced by pass  9 Test12= 3.39D-14 2.22D-09 XBig12= 1.03D-14 1.08D-08.
 InvSVY:  IOpt=1 It=  1 EMax= 1.29D-15
 Solved reduced A of dimension   316 with    45 vectors.
 FullF1:  Do perturbations      1 to      45.
 Saving first derivative matrices.
 End of Minotr F.D. properties file   721 does not exist.
 End of Minotr F.D. properties file   722 does not exist.
 End of Minotr F.D. properties file   788 does not exist.
 Leave Link 1002 at Tue Oct  8 15:27:54 2024, MaxMem=  2684354560 cpu:             840.0 elap:             140.4
 (Enter /gpfs/fs1/soft/bebop/software/custom-built/gaussian/16-c.02/g16/l811.exe)
 MDV=  2684354560.
 DoSCS=T DFT=T ScalE2(SS,OS)=  0.270000  0.270000
 Form MO integral derivatives with frozen-active canonical formalism.
 MOERI=1 MOERIx=1 NAtoms=    14 NAtomX=    14.
 Discarding MO integrals.
 MO basis two electron integral derivatives will not be stored on disk.
 IAlg= 3 DoFC=T DoPWx=T Debug=F.
 Frozen-core window:  NFC=  10 NFV=   0.
 Reordered first order wavefunction length =    346421397
 In DefCFB: NBatch=  1 ICI= 29 ICA=268 LFMax= 54
            Large arrays: LIAPS=  6029517632 LIARS=  1417333008 words.
 In StABat: MaxSiz= 39 MinSiz= 30 NAtomB= 10
 DoIAMN: NPSUse=  6.
 In DefCFB: NBatch=  1 ICI= 29 ICA=268 LFMax= 54
            Large arrays: LIAPS=  6029517632 LIARS=  1417333008 words.
 In StABat: MaxSiz= 39 MinSiz= 30 NAtomB= 10
 Leave Link  811 at Tue Oct  8 15:57:06 2024, MaxMem=  2684354560 cpu:           10480.8 elap:            1751.4
 (Enter /gpfs/fs1/soft/bebop/software/custom-built/gaussian/16-c.02/g16/l804.exe)
 Frozen-core window:  NFC=  10 NFV=   0.
 Open-shell transformation, MDV=  2684354560 ITran=4 ISComp=1.
 Semi-Direct transformation.
 ModeAB=           4 MOrb=            29 LenV=    2681676668
 LASXX=    352559467 LTotXX=   352559467 LenRXX=   712031635
 LTotAB=   359472168 MaxLAS=   471622128 LenRXY=           0
 NonZer=  1064591102 LenScr=  1603149824 LnRSAI=   471622128
 LnScr1=   710207488 LExtra=           0 Total=   3497011075
 MaxDsk=          -1 SrtSym=           T ITran=            4
 DoSDTr:  NPSUse=  6
 JobTyp=1 Pass  1:  I=   1 to  29.
 (rs|ai) integrals will be sorted in core.
 Complete sort for first half transformation.
 First half transformation complete.
 Begin second half transformation for I=  10.
 Begin second half transformation for I=  20.
 Complete sort for second half transformation.
 Second half transformation complete.
 ModeAB=           4 MOrb=            28 LenV=    2681676668
 LASXX=    341220355 LTotXX=   341220355 LenRXX=   624224335
 LTotAB=   283003980 MaxLAS=   455359296 LenRXY=           0
 NonZer=   965444690 LenScr=  1453846528 LnRSAI=   455359296
 LnScr1=   685718528 LExtra=           0 Total=   3219148687
 MaxDsk=          -1 SrtSym=           T ITran=            4
 DoSDTr:  NPSUse=  6
 JobTyp=2 Pass  1:  I=   1 to  28.
 (rs|ai) integrals will be sorted in core.
 Complete sort for first half transformation.
 First half transformation complete.
 Begin second half transformation for I=  10.
 Begin second half transformation for I=  20.
 Complete sort for second half transformation.
 Second half transformation complete.
 SymMOI:  orbitals are not symmetric.
 DoSCS=T DFT=T ScalE2(SS,OS)=  0.270000  0.270000
 Spin components of T(2) and E(2):
     alpha-alpha T2 =       0.6646018370D-01 E2=     -0.4492063234D-01
     alpha-beta  T2 =       0.3777734914D+00 E2=     -0.2725719807D+00
     beta-beta   T2 =       0.6546499726D-01 E2=     -0.4208105281D-01
 E2(B2PLYPD3) =    -0.3595736659D+00 E(B2PLYPD3) =    -0.69235204498502D+03
 (S**2,0)=  0.75632D+00           (S**2,1)=  0.74589D+00
 Scaling Projection term by:   0.270000
 E(PUHF)=      -0.69199533846D+03        E(PMP2)=      -0.69235218174D+03
 Leave Link  804 at Tue Oct  8 15:59:53 2024, MaxMem=  2684354560 cpu:            1000.1 elap:             167.1
 (Enter /gpfs/fs1/soft/bebop/software/custom-built/gaussian/16-c.02/g16/l1002.exe)
 Minotr:  UHF open shell wavefunction.
          Computing MP2/KS-MP2 derivatives.
          Using Z-Vector for PSCF gradient.
          Skipping F1 and S1 gradient terms here.
          IDoAtm=11111111111111
          Frozen-core window.
          Direct CPHF calculation.
          Differentiating once with respect to electric field.
                with respect to dipole field.
          Differentiating once with respect to nuclear coordinates.
          Requested convergence is 1.0D-10 RMS, and 1.0D-09 maximum.
          NewPWx=T KeepS1=F KeepF1=F KeepIn=T MapXYZ=F SortEE=F KeepMc=T.
 Keep R1 and R2 ints in memory in canonical form, NReq=1950975864.
 FoFCou: FMM=F IPFlag=           0 FMFlag=           0 FMFlg1=           0
         NFxFlg=           0 DoJE=F BraDBF=F KetDBF=F FulRan=T
         wScrn=  0.000000 ICntrl=       600 IOpCl=  0 I1Cent=           0 NGrid=           0
         NMat0=    1 NMatS0=  43956 NMatT0=    0 NMatD0=    1 NMtDS0=    0 NMtDT0=    0
 Symmetry not used in FoFCou.
 Two-electron integral symmetry not used.
          MDV=    2684354560 using IRadAn=       5.
          Solving linear equations separately, MaxMat=       0.
          There are     1 degrees of freedom in the 1st order CPHF.  IDoFFX=0 NUNeed=     1.
 LinEq1:  Iter=  0 NonCon=     1 RMS=9.48D-04 Max=9.37D-02 NDo=     1
 AX will form     1 AO Fock derivatives at one time.
 LinEq1:  Iter=  1 NonCon=     1 RMS=3.31D-04 Max=1.04D-02 NDo=     1
 LinEq1:  Iter=  2 NonCon=     1 RMS=2.02D-04 Max=8.82D-03 NDo=     1
 LinEq1:  Iter=  3 NonCon=     1 RMS=9.47D-05 Max=2.36D-03 NDo=     1
 LinEq1:  Iter=  4 NonCon=     1 RMS=3.71D-05 Max=1.29D-03 NDo=     1
 LinEq1:  Iter=  5 NonCon=     1 RMS=1.75D-05 Max=1.13D-03 NDo=     1
 LinEq1:  Iter=  6 NonCon=     1 RMS=9.14D-06 Max=6.32D-04 NDo=     1
 LinEq1:  Iter=  7 NonCon=     1 RMS=4.01D-06 Max=1.88D-04 NDo=     1
 LinEq1:  Iter=  8 NonCon=     1 RMS=2.04D-06 Max=5.46D-05 NDo=     1
 LinEq1:  Iter=  9 NonCon=     1 RMS=8.08D-07 Max=1.36D-05 NDo=     1
 LinEq1:  Iter= 10 NonCon=     1 RMS=2.66D-07 Max=5.55D-06 NDo=     1
 LinEq1:  Iter= 11 NonCon=     1 RMS=1.05D-07 Max=2.15D-06 NDo=     1
 LinEq1:  Iter= 12 NonCon=     1 RMS=3.89D-08 Max=1.25D-06 NDo=     1
 LinEq1:  Iter= 13 NonCon=     1 RMS=2.06D-08 Max=4.35D-07 NDo=     1
 LinEq1:  Iter= 14 NonCon=     1 RMS=8.51D-09 Max=5.32D-07 NDo=     1
 LinEq1:  Iter= 15 NonCon=     1 RMS=4.47D-09 Max=3.05D-07 NDo=     1
 LinEq1:  Iter= 16 NonCon=     1 RMS=2.08D-09 Max=8.35D-08 NDo=     1
 LinEq1:  Iter= 17 NonCon=     1 RMS=5.14D-10 Max=7.59D-09 NDo=     1
 LinEq1:  Iter= 18 NonCon=     1 RMS=1.72D-10 Max=3.00D-09 NDo=     1
 LinEq1:  Iter= 19 NonCon=     0 RMS=5.58D-11 Max=9.51D-10 NDo=     1
 Linear equations converged to 1.000D-10 1.000D-09 after    19 iterations.
 End of Minotr F.D. properties file   721 does not exist.
 End of Minotr F.D. properties file   722 does not exist.
 End of Minotr F.D. properties file   788 does not exist.
 Leave Link 1002 at Tue Oct  8 16:01:44 2024, MaxMem=  2684354560 cpu:             397.8 elap:             110.5
 (Enter /gpfs/fs1/soft/bebop/software/custom-built/gaussian/16-c.02/g16/l1102.exe)
 Use density number 2.
 Symmetrizing basis deriv contribution to polar:
 IMax=3 JMax=2 DiffMx= 0.00D+00
 Leave Link 1102 at Tue Oct  8 16:01:44 2024, MaxMem=  2684354560 cpu:               0.2 elap:               0.1
 (Enter /gpfs/fs1/soft/bebop/software/custom-built/gaussian/16-c.02/g16/l1110.exe)
 Forming Gx(P) for generalized density number  2 NAtomX=    14.
 Integral derivatives from FoFJK, PRISM(SPDF).
 Do as many integral derivatives as possible in FoFJK.
 G2DrvN: MDV=    2684352982.
 G2DrvN: will do    15 centers at a time, making    1 passes.
 Calling FoFCou, ICntrl=  3107 FMM=F I1Cent=   0 AccDes= 0.00D+00.
 FoFJK:  IHMeth= 1 ICntrl=    3107 DoSepK=F KAlg= 0 I1Cent=           0 FoldK=F
 IRaf=         0 NMat=       1 IRICut=       1 DoRegI=T DoRafI=F ISym2E= 0 IDoP0=0 IntGTp=1.
 FoFCou: FMM=F IPFlag=           0 FMFlag=      100000 FMFlg1=           0
         NFxFlg=           0 DoJE=F BraDBF=F KetDBF=F FulRan=T
         wScrn=  0.000000 ICntrl=      3107 IOpCl=  1 I1Cent=           0 NGrid=           0
         NMat0=    1 NMatS0=      1 NMatT0=    0 NMatD0=    1 NMtDS0=    0 NMtDT0=    0
 Symmetry not used in FoFCou.
 End of G2Drv F.D. properties file   721 does not exist.
 End of G2Drv F.D. properties file   722 does not exist.
 End of G2Drv F.D. properties file   788 does not exist.
 Leave Link 1110 at Tue Oct  8 16:03:22 2024, MaxMem=  2684354560 cpu:             586.6 elap:              98.0
 (Enter /gpfs/fs1/soft/bebop/software/custom-built/gaussian/16-c.02/g16/l1112.exe)
 MP22nd: MDV=    2684354560
 DoSCS=T DFT=T ScalE2(SS,OS)=  0.270000  0.270000
 This link is doing NAtomX=    14 total of    45 degrees of freedom.
 Using ON3 I/O method in MakUI.
 Frozen-core window:  NFC=  10 NFV=   0.
 Using Ix for Sx.
 Use MO integrals over full window.
 Using OV2 memory method for fx*t*t/D, MaxI=    28 DoOO2=F NP=   6.
 Would need an additional   464343840 words for in-memory AO integral storage.
 DD1Dir will call FoFJK   4 times, MxPair=       602
 NAB=   812 NAA=   406 NBB=   378 NumPrc=  6.
 DD1Dir:  Pass   1 NRAB=   301 NRAA=     0 NRBB=     0 NR=   602.
 FoFJK:  IHMeth= 1 ICntrl=     200 DoSepK=F KAlg= 0 I1Cent=           0 FoldK=F
 IRaf= 990000000 NMat=     602 IRICut=     752 DoRegI=T DoRafI=T ISym2E= 2 IDoP0=3 IntGTp=3.
 FoFCou: FMM=F IPFlag=           0 FMFlag=           0 FMFlg1=           0
         NFxFlg=           0 DoJE=F BraDBF=F KetDBF=F FulRan=T
         wScrn=  0.000000 ICntrl=       200 IOpCl=  0 I1Cent=           0 NGrid=           0
         NMat0=  602 NMatS0=      0 NMatT0=  301 NMatD0=  602 NMtDS0=    0 NMtDT0=    0
 Integrals replicated using symmetry in FoFCou.
 Raff kept on since  96.76% of shell-pairs survive, threshold=   0.20 IRatSp=97.
 DD1Dir:  Pass   2 NRAB=   301 NRAA=     0 NRBB=     0 NR=   602.
 DD1Dir:  Pass   3 NRAB=   210 NRAA=   182 NRBB=     0 NR=   602.
 DD1Dir:  Pass   4 NRAB=     0 NRAA=   224 NRBB=   378 NR=   602.
 Symmetry is being used.
 R6Disp: Adding Grimme-D3(BJ) dispersion energy 1st derivatives to the gradient.
 Discarding MO integrals.
 Leave Link 1112 at Tue Oct  8 16:22:17 2024, MaxMem=  2684354560 cpu:            6793.1 elap:            1134.9
 (Enter /gpfs/fs1/soft/bebop/software/custom-built/gaussian/16-c.02/g16/l601.exe)
 Copying SCF densities to generalized density rwf, IOpCl= 1 IROHF=0.

 **********************************************************************

            Population analysis using the SCF Density.

 **********************************************************************

 Orbital symmetries:
 Alpha Orbitals:
       Occupied  (A) (A) (A) (A) (A) (A) (A) (A) (A) (A) (A) (A)
                 (A) (A) (A) (A) (A) (A) (A) (A) (A) (A) (A) (A)
                 (A) (A) (A) (A) (A)
       Virtual   (A) (A) (A) (A) (A) (A) (A) (A) (A) (A) (A) (A)
                 (A) (A) (A) (A) (A) (A) (A) (A) (A) (A) (A) (A)
                 (A) (A) (A) (A) (A) (A) (A) (A) (A) (A) (A) (A)
                 (A) (A) (A) (A) (A) (A) (A) (A) (A) (A) (A) (A)
                 (A) (A) (A) (A) (A) (A) (A) (A) (A) (A) (A) (A)
                 (A) (A) (A) (A) (A) (A) (A) (A) (A) (A) (A) (A)
                 (A) (A) (A) (A) (A) (A) (A) (A) (A) (A) (A) (A)
                 (A) (A) (A) (A) (A) (A) (A) (A) (A) (A) (A) (A)
                 (A) (A) (A) (A) (A) (A) (A) (A) (A) (A) (A) (A)
                 (A) (A) (A) (A) (A) (A) (A) (A) (A) (A) (A) (A)
                 (A) (A) (A) (A) (A) (A) (A) (A) (A) (A) (A) (A)
                 (A) (A) (A) (A) (A) (A) (A) (A) (A) (A) (A) (A)
                 (A) (A) (A) (A) (A) (A) (A) (A) (A) (A) (A) (A)
                 (A) (A) (A) (A) (A) (A) (A) (A) (A) (A) (A) (A)
                 (A) (A) (A) (A) (A) (A) (A) (A) (A) (A) (A) (A)
                 (A) (A) (A) (A) (A) (A) (A) (A) (A) (A) (A) (A)
                 (A) (A) (A) (A) (A) (A) (A) (A) (A) (A) (A) (A)
                 (A) (A) (A) (A) (A) (A) (A) (A) (A) (A) (A) (A)
                 (A) (A) (A) (A) (A) (A) (A) (A) (A) (A) (A) (A)
                 (A) (A) (A) (A) (A) (A) (A) (A) (A) (A) (A) (A)
                 (A) (A) (A) (A) (A) (A) (A) (A) (A) (A) (A) (A)
                 (A) (A) (A) (A) (A) (A) (A) (A) (A) (A) (A) (A)
                 (A) (A) (A)
 Beta  Orbitals:
       Occupied  (A) (A) (A) (A) (A) (A) (A) (A) (A) (A) (A) (A)
                 (A) (A) (A) (A) (A) (A) (A) (A) (A) (A) (A) (A)
                 (A) (A) (A) (A)
       Virtual   (A) (A) (A) (A) (A) (A) (A) (A) (A) (A) (A) (A)
                 (A) (A) (A) (A) (A) (A) (A) (A) (A) (A) (A) (A)
                 (A) (A) (A) (A) (A) (A) (A) (A) (A) (A) (A) (A)
                 (A) (A) (A) (A) (A) (A) (A) (A) (A) (A) (A) (A)
                 (A) (A) (A) (A) (A) (A) (A) (A) (A) (A) (A) (A)
                 (A) (A) (A) (A) (A) (A) (A) (A) (A) (A) (A) (A)
                 (A) (A) (A) (A) (A) (A) (A) (A) (A) (A) (A) (A)
                 (A) (A) (A) (A) (A) (A) (A) (A) (A) (A) (A) (A)
                 (A) (A) (A) (A) (A) (A) (A) (A) (A) (A) (A) (A)
                 (A) (A) (A) (A) (A) (A) (A) (A) (A) (A) (A) (A)
                 (A) (A) (A) (A) (A) (A) (A) (A) (A) (A) (A) (A)
                 (A) (A) (A) (A) (A) (A) (A) (A) (A) (A) (A) (A)
                 (A) (A) (A) (A) (A) (A) (A) (A) (A) (A) (A) (A)
                 (A) (A) (A) (A) (A) (A) (A) (A) (A) (A) (A) (A)
                 (A) (A) (A) (A) (A) (A) (A) (A) (A) (A) (A) (A)
                 (A) (A) (A) (A) (A) (A) (A) (A) (A) (A) (A) (A)
                 (A) (A) (A) (A) (A) (A) (A) (A) (A) (A) (A) (A)
                 (A) (A) (A) (A) (A) (A) (A) (A) (A) (A) (A) (A)
                 (A) (A) (A) (A) (A) (A) (A) (A) (A) (A) (A) (A)
                 (A) (A) (A) (A) (A) (A) (A) (A) (A) (A) (A) (A)
                 (A) (A) (A) (A) (A) (A) (A) (A) (A) (A) (A) (A)
                 (A) (A) (A) (A) (A) (A) (A) (A) (A) (A) (A) (A)
                 (A) (A) (A) (A)
 The electronic state is 2-A.
 Alpha  occ. eigenvalues -- -102.96296 -19.74451 -10.68363 -10.68311 -10.61689
 Alpha  occ. eigenvalues --  -10.61637  -9.94959  -7.60275  -7.58082  -7.58079
 Alpha  occ. eigenvalues --   -1.22205  -0.95594  -0.87392  -0.86136  -0.74143
 Alpha  occ. eigenvalues --   -0.67228  -0.60524  -0.53452  -0.51711  -0.50509
 Alpha  occ. eigenvalues --   -0.47813  -0.46981  -0.45612  -0.43813  -0.42698
 Alpha  occ. eigenvalues --   -0.40465  -0.39864  -0.35438  -0.34829
 Alpha virt. eigenvalues --    0.07993   0.10352   0.11028   0.13795   0.14456
 Alpha virt. eigenvalues --    0.15034   0.15186   0.18361   0.19431   0.21351
 Alpha virt. eigenvalues --    0.21531   0.25069   0.27207   0.29174   0.31054
 Alpha virt. eigenvalues --    0.33999   0.35247   0.36223   0.39146   0.40216
 Alpha virt. eigenvalues --    0.41319   0.41724   0.42711   0.43091   0.44742
 Alpha virt. eigenvalues --    0.48205   0.48818   0.49854   0.50313   0.50702
 Alpha virt. eigenvalues --    0.51759   0.52752   0.53691   0.54136   0.55184
 Alpha virt. eigenvalues --    0.55479   0.57013   0.57260   0.58403   0.59379
 Alpha virt. eigenvalues --    0.61722   0.62939   0.63386   0.66384   0.69569
 Alpha virt. eigenvalues --    0.77692   0.79902   0.80283   0.85002   0.85313
 Alpha virt. eigenvalues --    0.89287   0.91735   0.92909   0.94549   0.97259
 Alpha virt. eigenvalues --    1.00942   1.01151   1.03716   1.04482   1.06074
 Alpha virt. eigenvalues --    1.08286   1.09770   1.11628   1.13133   1.13981
 Alpha virt. eigenvalues --    1.17214   1.19673   1.20834   1.22860   1.24546
 Alpha virt. eigenvalues --    1.25126   1.30615   1.32847   1.33247   1.35043
 Alpha virt. eigenvalues --    1.35993   1.37421   1.40651   1.41295   1.41542
 Alpha virt. eigenvalues --    1.44505   1.46366   1.49893   1.50565   1.51043
 Alpha virt. eigenvalues --    1.52942   1.57293   1.62106   1.63982   1.65014
 Alpha virt. eigenvalues --    1.69924   1.81066   1.84342   1.88965   1.95612
 Alpha virt. eigenvalues --    2.01479   2.03081   2.04300   2.05503   2.08578
 Alpha virt. eigenvalues --    2.08745   2.10175   2.14621   2.17980   2.18925
 Alpha virt. eigenvalues --    2.19771   2.20439   2.21174   2.21283   2.23827
 Alpha virt. eigenvalues --    2.25454   2.29005   2.35316   2.36386   2.37938
 Alpha virt. eigenvalues --    2.38964   2.41609   2.42857   2.46190   2.47824
 Alpha virt. eigenvalues --    2.53381   2.56073   2.58545   2.63242   2.67713
 Alpha virt. eigenvalues --    2.68759   2.70473   2.75377   2.76639   2.78747
 Alpha virt. eigenvalues --    2.83285   2.86752   2.87180   2.88451   2.90103
 Alpha virt. eigenvalues --    2.90566   2.94352   2.94802   2.97393   2.98368
 Alpha virt. eigenvalues --    3.03331   3.03874   3.05703   3.07201   3.08650
 Alpha virt. eigenvalues --    3.12452   3.13137   3.18063   3.19618   3.20933
 Alpha virt. eigenvalues --    3.22198   3.23938   3.24689   3.25665   3.28600
 Alpha virt. eigenvalues --    3.31910   3.34541   3.37153   3.38361   3.40495
 Alpha virt. eigenvalues --    3.42728   3.44407   3.45965   3.49837   3.52111
 Alpha virt. eigenvalues --    3.53243   3.54306   3.55150   3.57671   3.61468
 Alpha virt. eigenvalues --    3.62668   3.63041   3.65115   3.70357   3.73778
 Alpha virt. eigenvalues --    3.78173   3.78255   3.79669   3.82261   3.89236
 Alpha virt. eigenvalues --    3.89887   3.91798   3.95592   3.96539   3.97305
 Alpha virt. eigenvalues --    3.98619   4.00496   4.02551   4.06481   4.06653
 Alpha virt. eigenvalues --    4.11345   4.12339   4.14915   4.16869   4.17217
 Alpha virt. eigenvalues --    4.18501   4.22462   4.23562   4.24263   4.25690
 Alpha virt. eigenvalues --    4.30007   4.30525   4.36101   4.38875   4.41232
 Alpha virt. eigenvalues --    4.42018   4.44208   4.46317   4.49824   4.51284
 Alpha virt. eigenvalues --    4.53356   4.55780   4.64624   4.67964   4.68119
 Alpha virt. eigenvalues --    4.81225   4.83730   4.86537   4.92719   4.94835
 Alpha virt. eigenvalues --    4.95764   4.98707   5.04737   5.06056   5.07972
 Alpha virt. eigenvalues --    5.08673   5.13544   5.18168   5.23252   5.24283
 Alpha virt. eigenvalues --    5.28995   5.29908   5.31174   5.32141   5.40129
 Alpha virt. eigenvalues --    5.42272   5.46069   5.51431   5.51760   5.52603
 Alpha virt. eigenvalues --    5.54519   5.58698   5.61950   5.62990   5.70036
 Alpha virt. eigenvalues --    5.78761   5.79931   5.90891   5.94617   5.96566
 Alpha virt. eigenvalues --    6.00118   6.08408   6.11860   6.12498   6.22664
 Alpha virt. eigenvalues --    6.26450   6.68813   6.87983   7.03470   7.10679
 Alpha virt. eigenvalues --    7.20052   7.49635  11.05755  11.46878  12.74581
 Alpha virt. eigenvalues --   13.50571  14.33434
  Beta  occ. eigenvalues -- -102.95471 -19.74254 -10.68268 -10.68221 -10.61685
  Beta  occ. eigenvalues --  -10.61629  -9.94153  -7.57641  -7.57637  -7.57105
  Beta  occ. eigenvalues --   -1.21699  -0.88757  -0.86682  -0.86034  -0.73298
  Beta  occ. eigenvalues --   -0.67100  -0.60231  -0.53022  -0.51437  -0.49946
  Beta  occ. eigenvalues --   -0.47460  -0.46944  -0.43704  -0.42483  -0.38849
  Beta  occ. eigenvalues --   -0.38437  -0.35474  -0.34526
  Beta virt. eigenvalues --   -0.14433   0.08062   0.10445   0.11064   0.13971
  Beta virt. eigenvalues --    0.14519   0.15068   0.15236   0.18577   0.19895
  Beta virt. eigenvalues --    0.21380   0.21589   0.25098   0.27283   0.29541
  Beta virt. eigenvalues --    0.31068   0.34199   0.36280   0.37790   0.40256
  Beta virt. eigenvalues --    0.41242   0.42237   0.42347   0.42970   0.44860
  Beta virt. eigenvalues --    0.46814   0.48611   0.49548   0.50487   0.50516
  Beta virt. eigenvalues --    0.51017   0.52258   0.53416   0.53810   0.55154
  Beta virt. eigenvalues --    0.55850   0.56396   0.57328   0.58310   0.59820
  Beta virt. eigenvalues --    0.60644   0.61917   0.63323   0.64179   0.66957
  Beta virt. eigenvalues --    0.70495   0.78111   0.80022   0.80414   0.85333
  Beta virt. eigenvalues --    0.85416   0.89368   0.91952   0.92982   0.95119
  Beta virt. eigenvalues --    0.97393   1.01172   1.01850   1.03767   1.04670
  Beta virt. eigenvalues --    1.06680   1.08314   1.09860   1.11849   1.13371
  Beta virt. eigenvalues --    1.14115   1.17432   1.19754   1.20999   1.22868
  Beta virt. eigenvalues --    1.24631   1.25396   1.30650   1.32869   1.33290
  Beta virt. eigenvalues --    1.35095   1.36098   1.37532   1.40741   1.41348
  Beta virt. eigenvalues --    1.41555   1.44534   1.46415   1.49961   1.50628
  Beta virt. eigenvalues --    1.51169   1.52957   1.57304   1.62155   1.64049
  Beta virt. eigenvalues --    1.65218   1.69953   1.81095   1.84516   1.89367
  Beta virt. eigenvalues --    1.95749   2.02677   2.03698   2.04710   2.07973
  Beta virt. eigenvalues --    2.10191   2.12576   2.13744   2.16585   2.20189
  Beta virt. eigenvalues --    2.21086   2.21500   2.21839   2.22299   2.23246
  Beta virt. eigenvalues --    2.25983   2.27517   2.30163   2.36857   2.38560
  Beta virt. eigenvalues --    2.39041   2.39879   2.41938   2.43065   2.46630
  Beta virt. eigenvalues --    2.48212   2.53630   2.56381   2.58819   2.63536
  Beta virt. eigenvalues --    2.67760   2.69379   2.70552   2.75561   2.76723
  Beta virt. eigenvalues --    2.78821   2.83422   2.86842   2.87310   2.88593
  Beta virt. eigenvalues --    2.90166   2.90642   2.94426   2.94859   2.97456
  Beta virt. eigenvalues --    2.98422   3.03384   3.03953   3.05831   3.07250
  Beta virt. eigenvalues --    3.08740   3.12563   3.13180   3.18102   3.19668
  Beta virt. eigenvalues --    3.21030   3.22379   3.23992   3.24774   3.25726
  Beta virt. eigenvalues --    3.28769   3.31944   3.34607   3.37290   3.38514
  Beta virt. eigenvalues --    3.40558   3.42813   3.44437   3.46023   3.49898
  Beta virt. eigenvalues --    3.52142   3.53290   3.54337   3.55179   3.57698
  Beta virt. eigenvalues --    3.61537   3.62679   3.63076   3.65143   3.70401
  Beta virt. eigenvalues --    3.73820   3.78229   3.78276   3.79693   3.82349
  Beta virt. eigenvalues --    3.89271   3.89918   3.91821   3.95614   3.96584
  Beta virt. eigenvalues --    3.97383   3.98670   4.00582   4.02584   4.06499
  Beta virt. eigenvalues --    4.06713   4.11403   4.12394   4.14959   4.16887
  Beta virt. eigenvalues --    4.17246   4.18552   4.22501   4.23579   4.24280
  Beta virt. eigenvalues --    4.25729   4.30038   4.30580   4.36124   4.39033
  Beta virt. eigenvalues --    4.41273   4.42041   4.44238   4.46361   4.49866
  Beta virt. eigenvalues --    4.51339   4.53390   4.55894   4.64658   4.68046
  Beta virt. eigenvalues --    4.68193   4.81275   4.83814   4.87420   4.92777
  Beta virt. eigenvalues --    4.94894   4.95811   4.98755   5.04763   5.06115
  Beta virt. eigenvalues --    5.08033   5.08697   5.13614   5.18257   5.23308
  Beta virt. eigenvalues --    5.24361   5.29033   5.29942   5.31212   5.32177
  Beta virt. eigenvalues --    5.40310   5.42292   5.46096   5.51460   5.51779
  Beta virt. eigenvalues --    5.52642   5.54530   5.58804   5.61970   5.63042
  Beta virt. eigenvalues --    5.70124   5.78812   5.80062   5.91067   5.94713
  Beta virt. eigenvalues --    5.96633   6.00157   6.08634   6.12106   6.12528
  Beta virt. eigenvalues --    6.22978   6.26567   6.69101   6.88227   7.03680
  Beta virt. eigenvalues --    7.11173   7.20557   7.50004  11.05940  11.46969
  Beta virt. eigenvalues --   12.74678  13.50580  14.33443
          Condensed to atoms (all electrons):
               1          2          3          4          5          6
     1  C    4.796973   0.343402   0.343665   0.432578   0.217019  -0.037598
     2  C    0.343402   4.837504  -0.036406  -0.044374  -0.025364  -0.003290
     3  C    0.343665  -0.036406   4.830499  -0.035687   0.212721   0.344919
     4  H    0.432578  -0.044374  -0.035687   0.535473  -0.022019   0.001800
     5  O    0.217019  -0.025364   0.212721  -0.022019   7.994279  -0.023702
     6  C   -0.037598  -0.003290   0.344919   0.001800  -0.023702   4.830883
     7  H   -0.035574   0.001908   0.428763  -0.001014  -0.019966  -0.042003
     8  H   -0.037103   0.395981  -0.002390   0.001195   0.004831  -0.000853
     9  H   -0.034657   0.410818   0.007929  -0.006565  -0.003663   0.000112
    10  H   -0.035010   0.409198  -0.002326   0.005479   0.004066  -0.004291
    11  H   -0.002733  -0.003843  -0.035685   0.000168   0.003586   0.410189
    12  H   -0.001759  -0.000924  -0.036832   0.000618   0.004871   0.397639
    13  H    0.007949   0.000087  -0.035410  -0.000340  -0.003849   0.411425
    14  Cl  -0.004509  -0.002728  -0.007452  -0.000079  -0.000489  -0.006848
               7          8          9         10         11         12
     1  C   -0.035574  -0.037103  -0.034657  -0.035010  -0.002733  -0.001759
     2  C    0.001908   0.395981   0.410818   0.409198  -0.003843  -0.000924
     3  C    0.428763  -0.002390   0.007929  -0.002326  -0.035685  -0.036832
     4  H   -0.001014   0.001195  -0.006565   0.005479   0.000168   0.000618
     5  O   -0.019966   0.004831  -0.003663   0.004066   0.003586   0.004871
     6  C   -0.042003  -0.000853   0.000112  -0.004291   0.410189   0.397639
     7  H    0.530874   0.000525  -0.000328   0.000178   0.005218   0.000424
     8  H    0.000525   0.587013  -0.030447  -0.025222   0.000909   0.000197
     9  H   -0.000328  -0.030447   0.576592  -0.030089  -0.000250  -0.000117
    10  H    0.000178  -0.025222  -0.030089   0.573731   0.001357   0.000988
    11  H    0.005218   0.000909  -0.000250   0.001357   0.576027  -0.025579
    12  H    0.000424   0.000197  -0.000117   0.000988  -0.025579   0.582702
    13  H   -0.006132  -0.000116   0.000100  -0.000241  -0.030589  -0.030123
    14  Cl  -0.002659   0.002957   0.000105   0.000021   0.000148   0.003960
              13         14
     1  C    0.007949  -0.004509
     2  C    0.000087  -0.002728
     3  C   -0.035410  -0.007452
     4  H   -0.000340  -0.000079
     5  O   -0.003849  -0.000489
     6  C    0.411425  -0.006848
     7  H   -0.006132  -0.002659
     8  H   -0.000116   0.002957
     9  H    0.000100   0.000105
    10  H   -0.000241   0.000021
    11  H   -0.030589   0.000148
    12  H   -0.030123   0.003960
    13  H    0.576047   0.000444
    14  Cl   0.000444  17.088956
          Atomic-Atomic Spin Densities.
               1          2          3          4          5          6
     1  C    0.026895  -0.001405   0.017460   0.002422  -0.008663  -0.002148
     2  C   -0.001405   0.002300  -0.001495  -0.000202   0.000585   0.000523
     3  C    0.017460  -0.001495   0.021271   0.001927  -0.008723  -0.001561
     4  H    0.002422  -0.000202   0.001927  -0.000063  -0.001169  -0.000055
     5  O   -0.008663   0.000585  -0.008723  -0.001169   0.070246   0.001085
     6  C   -0.002148   0.000523  -0.001561  -0.000055   0.001085   0.004497
     7  H    0.003653  -0.000170   0.009053   0.000216  -0.002942  -0.000960
     8  H    0.000273   0.000478  -0.000004  -0.000098  -0.000039   0.000018
     9  H    0.000353  -0.000069   0.000072   0.000128   0.000043  -0.000045
    10  H    0.000115   0.000009   0.000102  -0.000020  -0.000096  -0.000018
    11  H    0.000226  -0.000115   0.000430   0.000002  -0.000117  -0.000188
    12  H   -0.000049   0.000013   0.000350   0.000009  -0.000023   0.000398
    13  H    0.000018  -0.000022   0.000935   0.000005  -0.000055  -0.000315
    14  Cl  -0.021441   0.002977  -0.029994  -0.004272   0.004170   0.004685
               7          8          9         10         11         12
     1  C    0.003653   0.000273   0.000353   0.000115   0.000226  -0.000049
     2  C   -0.000170   0.000478  -0.000069   0.000009  -0.000115   0.000013
     3  C    0.009053  -0.000004   0.000072   0.000102   0.000430   0.000350
     4  H    0.000216  -0.000098   0.000128  -0.000020   0.000002   0.000009
     5  O   -0.002942  -0.000039   0.000043  -0.000096  -0.000117  -0.000023
     6  C   -0.000960   0.000018  -0.000045  -0.000018  -0.000188   0.000398
     7  H    0.007341   0.000010   0.000018  -0.000001  -0.000006  -0.000056
     8  H    0.000010  -0.000532  -0.000003  -0.000057  -0.000007  -0.000007
     9  H    0.000018  -0.000003   0.000346   0.000132   0.000020  -0.000001
    10  H   -0.000001  -0.000057   0.000132  -0.000283  -0.000018  -0.000006
    11  H   -0.000006  -0.000007   0.000020  -0.000018  -0.000482  -0.000076
    12  H   -0.000056  -0.000007  -0.000001  -0.000006  -0.000076  -0.000649
    13  H    0.000226  -0.000001  -0.000001   0.000011   0.000266  -0.000005
    14  Cl  -0.015300  -0.000736  -0.000199  -0.000038  -0.000153  -0.001231
              13         14
     1  C    0.000018  -0.021441
     2  C   -0.000022   0.002977
     3  C    0.000935  -0.029994
     4  H    0.000005  -0.004272
     5  O   -0.000055   0.004170
     6  C   -0.000315   0.004685
     7  H    0.000226  -0.015300
     8  H   -0.000001  -0.000736
     9  H   -0.000001  -0.000199
    10  H    0.000011  -0.000038
    11  H    0.000266  -0.000153
    12  H   -0.000005  -0.001231
    13  H   -0.001079  -0.000308
[...]
  Beta virt. eigenvalues --    2.20260   2.20302   2.20717   2.20922   2.22428
  Beta virt. eigenvalues --    2.24724   2.25694   2.31440   2.34737   2.36832
  Beta virt. eigenvalues --    2.37644   2.39367   2.40272   2.42582   2.47552
  Beta virt. eigenvalues --    2.48345   2.52301   2.53695   2.56329   2.58652
  Beta virt. eigenvalues --    2.63073   2.67964   2.70386   2.75553   2.76742
  Beta virt. eigenvalues --    2.79177   2.83740   2.85920   2.86296   2.88314
  Beta virt. eigenvalues --    2.90246   2.90845   2.94352   2.95333   2.97350
  Beta virt. eigenvalues --    2.99215   3.03250   3.03931   3.04742   3.07683
  Beta virt. eigenvalues --    3.07867   3.11129   3.13105   3.16993   3.18800
  Beta virt. eigenvalues --    3.19548   3.19991   3.23917   3.24615   3.25992
  Beta virt. eigenvalues --    3.28400   3.31303   3.34583   3.35867   3.37600
  Beta virt. eigenvalues --    3.40831   3.41738   3.45223   3.46241   3.50469
  Beta virt. eigenvalues --    3.51701   3.53837   3.54232   3.54982   3.57875
  Beta virt. eigenvalues --    3.61080   3.62707   3.62729   3.65039   3.70504
  Beta virt. eigenvalues --    3.74246   3.77801   3.78101   3.80493   3.83049
  Beta virt. eigenvalues --    3.88690   3.89431   3.91050   3.94515   3.96300
  Beta virt. eigenvalues --    3.97269   3.98872   4.00390   4.02902   4.06466
  Beta virt. eigenvalues --    4.07077   4.10712   4.13248   4.13648   4.15926
  Beta virt. eigenvalues --    4.17480   4.17869   4.22044   4.23123   4.24462
  Beta virt. eigenvalues --    4.25289   4.30039   4.31362   4.37392   4.39257
  Beta virt. eigenvalues --    4.41593   4.42941   4.44409   4.45612   4.50972
  Beta virt. eigenvalues --    4.51387   4.53479   4.56719   4.63088   4.67939
  Beta virt. eigenvalues --    4.68732   4.71225   4.82444   4.82554   4.92315
  Beta virt. eigenvalues --    4.94976   4.95543   4.98658   5.04374   5.05779
  Beta virt. eigenvalues --    5.08118   5.08772   5.12695   5.16638   5.23336
  Beta virt. eigenvalues --    5.24253   5.28875   5.30124   5.30826   5.32129
  Beta virt. eigenvalues --    5.39822   5.42351   5.46273   5.51146   5.52114
  Beta virt. eigenvalues --    5.52673   5.54595   5.58638   5.61535   5.65172
  Beta virt. eigenvalues --    5.66568   5.78648   5.80807   5.91882   5.94511
  Beta virt. eigenvalues --    5.96411   6.00099   6.08212   6.11473   6.12519
  Beta virt. eigenvalues --    6.22721   6.26239   6.68016   6.87350   7.03614
  Beta virt. eigenvalues --    7.11586   7.20849   7.49812  11.01879  11.36780
  Beta virt. eigenvalues --   12.89230  13.49374  14.32841
          Condensed to atoms (all electrons):
               1          2          3          4          5          6
     1  C    4.771953   0.345936   0.360800   0.430546   0.211742  -0.037385
     2  C    0.345936   4.834050  -0.035281  -0.043710  -0.025370  -0.003002
     3  C    0.360800  -0.035281   4.806609  -0.039382   0.218325   0.345922
     4  H    0.430546  -0.043710  -0.039382   0.550572  -0.021543   0.001997
     5  O    0.211742  -0.025370   0.218325  -0.021543   8.005259  -0.024501
     6  C   -0.037385  -0.003002   0.345922   0.001997  -0.024501   4.827964
     7  H   -0.037813   0.002292   0.421829  -0.002250  -0.020418  -0.043211
     8  H   -0.038775   0.396508  -0.001455   0.001115   0.004680  -0.000935
     9  H   -0.034025   0.410673   0.007687  -0.006844  -0.003667   0.000144
    10  H   -0.035429   0.408768  -0.001998   0.005751   0.004148  -0.003963
    11  H   -0.002961  -0.003258  -0.035235   0.000162   0.003739   0.408672
    12  H   -0.000564  -0.000945  -0.037147   0.000616   0.004479   0.398025
    13  H    0.007769   0.000089  -0.034941  -0.000347  -0.003669   0.411746
    14  Cl  -0.005570  -0.000241  -0.004878   0.003077  -0.000400  -0.002395
               7          8          9         10         11         12
     1  C   -0.037813  -0.038775  -0.034025  -0.035429  -0.002961  -0.000564
     2  C    0.002292   0.396508   0.410673   0.408768  -0.003258  -0.000945
     3  C    0.421829  -0.001455   0.007687  -0.001998  -0.035235  -0.037147
     4  H   -0.002250   0.001115  -0.006844   0.005751   0.000162   0.000616
     5  O   -0.020418   0.004680  -0.003667   0.004148   0.003739   0.004479
     6  C   -0.043211  -0.000935   0.000144  -0.003963   0.408672   0.398025
     7  H    0.550525   0.000461  -0.000335   0.000175   0.005622  -0.000251
     8  H    0.000461   0.596015  -0.030289  -0.026584   0.000832   0.000127
     9  H   -0.000335  -0.030289   0.576690  -0.029560  -0.000262  -0.000094
    10  H    0.000175  -0.026584  -0.029560   0.574779   0.001404   0.000896
    11  H    0.005622   0.000832  -0.000262   0.001404   0.576888  -0.026671
    12  H   -0.000251   0.000127  -0.000094   0.000896  -0.026671   0.589353
    13  H   -0.006542  -0.000099   0.000094  -0.000267  -0.030185  -0.030012
    14  Cl   0.003453   0.000830  -0.000011   0.000003   0.000068   0.002754
              13         14
     1  C    0.007769  -0.005570
     2  C    0.000089  -0.000241
     3  C   -0.034941  -0.004878
     4  H   -0.000347   0.003077
     5  O   -0.003669  -0.000400
     6  C    0.411746  -0.002395
     7  H   -0.006542   0.003453
     8  H   -0.000099   0.000830
     9  H    0.000094  -0.000011
    10  H   -0.000267   0.000003
    11  H   -0.030185   0.000068
    12  H   -0.030012   0.002754
    13  H    0.575929   0.000120
    14  Cl   0.000120  17.044602
          Atomic-Atomic Spin Densities.
               1          2          3          4          5          6
     1  C   -0.000404  -0.000412   0.004692   0.001068  -0.002318  -0.000959
     2  C   -0.000412   0.000595  -0.000234   0.000071  -0.000039   0.000238
     3  C    0.004692  -0.000234   0.027182   0.000694  -0.007792  -0.002841
     4  H    0.001068   0.000071   0.000694  -0.000590  -0.000315   0.000004
     5  O   -0.002318  -0.000039  -0.007792  -0.000315   0.044553   0.000569
     6  C   -0.000959   0.000238  -0.002841   0.000004   0.000569   0.007251
     7  H    0.002137  -0.000114   0.014233   0.000103  -0.002281  -0.001165
     8  H    0.000250   0.000424   0.000026  -0.000130  -0.000059   0.000017
     9  H    0.000095   0.000018  -0.000013   0.000020   0.000053  -0.000010
    10  H    0.000103  -0.000070   0.000013  -0.000005  -0.000027  -0.000023
    11  H    0.000262  -0.000169   0.000538   0.000004  -0.000009  -0.000374
    12  H   -0.000069   0.000041   0.000539  -0.000002  -0.000031   0.000467
    13  H   -0.000055   0.000004   0.000174  -0.000000   0.000016   0.000082
    14  Cl  -0.004733   0.000793  -0.016771  -0.002116   0.001916   0.003645
               7          8          9         10         11         12
     1  C    0.002137   0.000250   0.000095   0.000103   0.000262  -0.000069
     2  C   -0.000114   0.000424   0.000018  -0.000070  -0.000169   0.000041
     3  C    0.014233   0.000026  -0.000013   0.000013   0.000538   0.000539
     4  H    0.000103  -0.000130   0.000020  -0.000005   0.000004  -0.000002
     5  O   -0.002281  -0.000059   0.000053  -0.000027  -0.000009  -0.000031
     6  C   -0.001165   0.000017  -0.000010  -0.000023  -0.000374   0.000467
     7  H    0.005464  -0.000017   0.000009   0.000002   0.000023  -0.000250
     8  H   -0.000017  -0.000600   0.000026   0.000001   0.000007  -0.000019
     9  H    0.000009   0.000026  -0.000321   0.000049   0.000012  -0.000001
    10  H    0.000002   0.000001   0.000049  -0.000087   0.000038  -0.000003
    11  H    0.000023   0.000007   0.000012   0.000038   0.000911  -0.000124
    12  H   -0.000250  -0.000019  -0.000001  -0.000003  -0.000124  -0.000749
    13  H    0.000030  -0.000000  -0.000001   0.000003   0.000077  -0.000044
    14  Cl  -0.022336  -0.000295  -0.000014  -0.000026  -0.000240  -0.000728
              13         14
     1  C   -0.000055  -0.004733
     2  C    0.000004   0.000793
     3  C    0.000174  -0.016771
     4  H   -0.000000  -0.002116
     5  O    0.000016   0.001916
     6  C    0.000082   0.003645
     7  H    0.000030  -0.022336
     8  H   -0.000000  -0.000295
     9  H   -0.000001  -0.000014
    10  H    0.000003  -0.000026
    11  H    0.000077  -0.000240
    12  H   -0.000044  -0.000728
    13  H   -0.000656   0.000001
    14  Cl   0.000001   0.984749
 Mulliken charges and spin densities:
               1          2
     1  C    0.063775  -0.000343
     2  C   -0.286508   0.001146
     3  C    0.029145   0.020440
     4  H    0.120240  -0.001195
     5  O   -0.352804   0.034235
     6  C   -0.279079   0.006902
     7  H    0.126464  -0.004163
     8  H    0.097569  -0.000369
     9  H    0.109798  -0.000079
    10  H    0.101876  -0.000030
    11  H    0.101187   0.000956
    12  H    0.099435  -0.000974
    13  H    0.110315  -0.000369
    14  Cl  -0.041412   0.943845
 Sum of Mulliken charges =  -0.00000   1.00000
 Mulliken charges and spin densities with hydrogens summed into heavy atoms:
               1          2
     1  C    0.184014  -0.001538
     2  C    0.022734   0.000668
     3  C    0.155609   0.016276
     5  O   -0.352804   0.034235
     6  C    0.031859   0.006514
    14  Cl  -0.041412   0.943845
 Electronic spatial extent (au):  <R**2>=            978.6562
 Charge=             -0.0000 electrons
 Dipole moment (field-independent basis, Debye):
    X=             -0.4363    Y=             -0.2702    Z=              1.7005  Tot=              1.7763
 Quadrupole moment (field-independent basis, Debye-Ang):
   XX=            -45.8140   YY=            -41.7189   ZZ=            -47.0965
   XY=             -0.7576   XZ=              3.1737   YZ=              0.5219
 Traceless Quadrupole moment (field-independent basis, Debye-Ang):
   XX=             -0.9375   YY=              3.1575   ZZ=             -2.2201
   XY=             -0.7576   XZ=              3.1737   YZ=              0.5219
 Octapole moment (field-independent basis, Debye-Ang**2):
  XXX=            -13.7321  YYY=              0.2645  ZZZ=              0.3409  XYY=              1.2272
  XXY=             -4.8926  XXZ=              6.7560  XZZ=             -5.7897  YZZ=             -0.8553
  YYZ=             -2.6693  XYZ=              1.8721
 Hexadecapole moment (field-independent basis, Debye-Ang**3):
 XXXX=           -734.0701 YYYY=           -321.0745 ZZZZ=           -181.3538 XXXY=             10.7922
 XXXZ=             -6.0065 YYYX=              2.7404 YYYZ=             -2.4262 ZZZX=             -1.1466
 ZZZY=             -0.5006 XXYY=           -180.1164 XXZZ=           -164.7274 YYZZ=            -82.4619
 XXYZ=              1.7078 YYXZ=             -4.3332 ZZXY=              0.2800
 N-N= 2.815240140562D+02 E-N=-2.198239421388D+03  KE= 6.901914443177D+02
                          Isotropic Fermi Contact Couplings
        Atom                 a.u.       MegaHertz       Gauss      10(-4) cm-1
     1  C(13)              0.00068       0.76407       0.27264       0.25487
     2  C(13)              0.00061       0.68082       0.24293       0.22710
     3  C(13)              0.02323      26.11310       9.31780       8.71039
     4  H(1)               0.00012       0.55592       0.19837       0.18543
     5  O(17)              0.00197      -1.19534      -0.42653      -0.39872
     6  C(13)              0.00262       2.94106       1.04944       0.98103
     7  H(1)               0.01092      48.83008      17.42379      16.28796
     8  H(1)              -0.00006      -0.27774      -0.09911      -0.09265
     9  H(1)              -0.00004      -0.18129      -0.06469      -0.06047
    10  H(1)              -0.00004      -0.20041      -0.07151      -0.06685
    11  H(1)               0.00055       2.44151       0.87119       0.81440
    12  H(1)              -0.00022      -0.97600      -0.34826      -0.32556
    13  H(1)              -0.00025      -1.09592      -0.39105      -0.36556
    14  Cl(35)             0.14907      65.35992      23.32204      21.80172
 --------------------------------------------------------
       Center         ----  Spin Dipole Couplings  ----
                      3XX-RR        3YY-RR        3ZZ-RR
 --------------------------------------------------------
     1   Atom        0.017118     -0.004913     -0.012205
     2   Atom        0.001636     -0.001054     -0.000582
     3   Atom        0.065497     -0.028458     -0.037038
     4   Atom        0.003917      0.001692     -0.005610
     5   Atom        0.275416     -0.134923     -0.140493
     6   Atom       -0.005144      0.000411      0.004733
     7   Atom        0.021709     -0.010665     -0.011044
     8   Atom        0.001721     -0.000947     -0.000774
     9   Atom        0.001291     -0.000150     -0.001141
    10   Atom        0.001905     -0.001512     -0.000393
    11   Atom        0.002191     -0.001361     -0.000829
    12   Atom        0.000969     -0.000377     -0.000592
    13   Atom       -0.000358      0.002638     -0.002280
    14   Atom        4.229167     -2.095972     -2.133196
 --------------------------------------------------------
                        XY            XZ            YZ
 --------------------------------------------------------
     1   Atom       -0.008080     -0.000781     -0.002139
     2   Atom       -0.002654      0.002435     -0.002811
     3   Atom        0.031520      0.029388      0.008199
     4   Atom       -0.004725     -0.003426      0.002891
     5   Atom        0.030066      0.091262     -0.003065
     6   Atom        0.005918      0.004631      0.012735
     7   Atom        0.004809      0.002121     -0.011164
     8   Atom       -0.001806      0.001661     -0.001442
     9   Atom       -0.001572      0.000319     -0.000506
    10   Atom       -0.000503      0.001585     -0.000456
    11   Atom        0.001101      0.001974      0.001318
    12   Atom        0.004078      0.002157      0.003824
    13   Atom        0.002827      0.000327      0.000667
    14   Atom        2.078787     -2.017900     -0.604126
 --------------------------------------------------------


 ---------------------------------------------------------------------------------
              Anisotropic Spin Dipole Couplings in Principal Axis System
 ---------------------------------------------------------------------------------

       Atom             a.u.   MegaHertz   Gauss  10(-4) cm-1        Axes

              Baa    -0.0131    -1.762    -0.629    -0.588  0.1197  0.3585  0.9258
     1 C(13)  Bbb    -0.0066    -0.890    -0.317    -0.297  0.2870  0.8802 -0.3779
              Bcc     0.0198     2.652     0.946     0.885  0.9504 -0.3110 -0.0024
 
              Baa    -0.0037    -0.492    -0.176    -0.164  0.0999  0.7737  0.6256
     2 C(13)  Bbb    -0.0017    -0.235    -0.084    -0.078  0.7177  0.3794 -0.5839
              Bcc     0.0054     0.727     0.259     0.242  0.6891 -0.5073  0.5174
 
              Baa    -0.0449    -6.021    -2.148    -2.008 -0.2640  0.0253  0.9642
     3 C(13)  Bbb    -0.0380    -5.097    -1.819    -1.700 -0.2645  0.9594 -0.0976
              Bcc     0.0829    11.118     3.967     3.709  0.9275  0.2808  0.2466
 
              Baa    -0.0070    -3.727    -1.330    -1.243  0.2125 -0.2027  0.9559
     4 H(1)   Bbb    -0.0020    -1.091    -0.389    -0.364  0.6295  0.7766  0.0248
              Bcc     0.0090     4.818     1.719     1.607  0.7473 -0.5965 -0.2927
 
              Baa    -0.1629    11.784     4.205     3.931 -0.2141  0.3312  0.9189
     5 O(17)  Bbb    -0.1336     9.669     3.450     3.225  0.0062  0.9412 -0.3378
              Bcc     0.2965   -21.453    -7.655    -7.156  0.9768  0.0666  0.2035
 
              Baa    -0.0110    -1.472    -0.525    -0.491 -0.3739  0.7712 -0.5152
     6 C(13)  Bbb    -0.0069    -0.924    -0.330    -0.308  0.8756  0.1105 -0.4702
              Bcc     0.0179     2.395     0.855     0.799  0.3057  0.6270  0.7166
 
              Baa    -0.0226   -12.038    -4.295    -4.015 -0.1101  0.7034  0.7022
     7 H(1)   Bbb     0.0001     0.077     0.028     0.026  0.0854 -0.6972  0.7118
              Bcc     0.0224    11.960     4.268     3.990  0.9902  0.1383  0.0166
 
              Baa    -0.0023    -1.238    -0.442    -0.413  0.0883  0.7741  0.6269
     8 H(1)   Bbb    -0.0013    -0.719    -0.257    -0.240 -0.6156 -0.4524  0.6453
              Bcc     0.0037     1.957     0.698     0.653  0.7831 -0.4429  0.4366
 
              Baa    -0.0014    -0.771    -0.275    -0.257  0.2660  0.6137  0.7433
     9 H(1)   Bbb    -0.0009    -0.501    -0.179    -0.167 -0.4973 -0.5732  0.6512
              Bcc     0.0024     1.272     0.454     0.424  0.8258 -0.5429  0.1528
 
              Baa    -0.0017    -0.894    -0.319    -0.298 -0.0337  0.9280  0.3711
    10 H(1)   Bbb    -0.0011    -0.606    -0.216    -0.202 -0.4781 -0.3410  0.8094
              Bcc     0.0028     1.501     0.536     0.501  0.8777 -0.1501  0.4552
 
              Baa    -0.0025    -1.331    -0.475    -0.444 -0.1360 -0.6921  0.7088
    11 H(1)   Bbb    -0.0012    -0.624    -0.223    -0.208 -0.5304  0.6551  0.5380
              Bcc     0.0037     1.956     0.698     0.652  0.8368  0.3028  0.4562
 
              Baa    -0.0048    -2.565    -0.915    -0.856 -0.3522  0.7758 -0.5235
    12 H(1)   Bbb    -0.0020    -1.060    -0.378    -0.354  0.7068 -0.1463 -0.6921
              Bcc     0.0068     3.625     1.294     1.209  0.6135  0.6138  0.4968
 
              Baa    -0.0024    -1.267    -0.452    -0.423  0.1139 -0.1939  0.9744
    13 H(1)   Bbb    -0.0020    -1.092    -0.390    -0.364  0.8516 -0.4860 -0.1963
              Bcc     0.0044     2.359     0.842     0.787  0.5116  0.8522  0.1097
 
              Baa    -2.7193  -142.324   -50.785   -47.474  0.1901  0.2785  0.9414
    14 Cl(35) Bbb    -2.7179  -142.251   -50.759   -47.450 -0.3347  0.9199 -0.2045
              Bcc     5.4373   284.574   101.543    94.924  0.9230  0.2762 -0.2681
 

 ---------------------------------------------------------------------------------

 No NMR shielding tensors so no spin-rotation constants.
 Leave Link  601 at Tue Oct  8 17:12:16 2024, MaxMem=  2684354560 cpu:               1.3 elap:               0.2
 (Enter /gpfs/fs1/soft/bebop/software/custom-built/gaussian/16-c.02/g16/l9999.exe)
 Unable to Open any file for archive entry.
 1\1\GINC-CSED-0007\FTS\UB2PLYPD3-FC\CC-pVTZ\C4H8Cl1O1(2)\COPAN\08-Oct-
 2024\1\\#P b2plypd3/cc-pvtz # SCF=(xqc) # POpt=(CALCFC,TS,NOEIGEN,MAXC
 YCLES=60) # int=ultrafine\\comment:\\0,2\C\C,1,R1\C,1,R2,2,A2\H,1,R3,2
 ,A3,3,D3,0\O,3,R4,1,A4,2,D4,0\C,3,R5,1,A5,5,D5,0\H,3,R6,1,A6,5,D6,0\H,
 2,R7,1,A7,3,D7,0\H,2,R8,1,A8,8,D8,0\H,2,R9,1,A9,8,D9,0\H,6,R10,3,A10,1
 ,D10,0\H,6,R11,3,A11,11,D11,0\H,6,R12,3,A12,11,D12,0\X,7,R13,3,A13,1,D
 13,0\Cl,7,R14,14,A14,3,D14,0\\R1=1.49904449\R2=1.46889395\R3=1.0852479
 7\R4=1.43005061\R5=1.50056214\R6=1.09554103\R7=1.09006241\R8=1.0891616
 5\R9=1.08576819\R10=1.08581554\R11=1.08953399\R12=1.08898013\R14=2.358
 81632\A2=124.12722864\A3=114.74621506\A4=59.57955595\A5=125.10100393\A
 6=116.77489022\A7=109.8785295\A8=109.96065331\A9=111.8744154\A10=111.6
 4372751\A11=109.72844952\A12=109.95330145\A14=104.34894443\D3=205.2124
 8521\D4=103.97031647\D5=254.72502088\D6=100.75055534\D7=94.39939886\D8
 =118.77219892\D9=238.94119839\D10=25.72007193\D11=239.03896482\D12=120
 .1770438\D14=115.53711435\R13=1.\A13=90.\D13=166.293502\\Version=ES64L
 -G16RevC.01\State=2-A\HF=-691.9942031\MP2=-692.3518169\PUHF=-691.99698
 07\PMP2-0=-692.3519475\S2=0.755799\S2-1=0.746202\S2A=0.750018\RMSD=6.8
 76e-09\RMSF=1.203e-05\Dipole=0.2091355,0.3175562,0.4766632\PG=C01 [X(C
 4H8Cl1O1)]\\@
 The archive entry for this job was punched.


 THERE IS MUCH PLEASURE TO BE GAINED FROM USELESS KNOWLEDGE

                                       -- BERTRAND RUSSELL
 Job cpu time:       0 days 13 hours 22 minutes 36.8 seconds.
 Elapsed time:       0 days  2 hours 28 minutes 16.6 seconds.
 File lengths (MBytes):  RWF=  60780 Int=      0 D2E=      0 Chk=     13 Scr=      1
 Normal termination of Gaussian 16 at Tue Oct  8 17:12:21 2024.
